----- GAMESS execution script 'rungms' -----
This job is running on host kylin.physics.illinois.edu
under operating system Linux at Mon Apr 17 23:10:18 CDT 2017
Available scratch disk space (Kbyte units) at beginning of the job is
Filesystem                    1K-blocks     Used Available Use% Mounted on
/dev/mapper/fedora_kylin-root 110123880 60566544  44515220  58% /
GAMESS temporary binary files will be written to /scr/yyang173
GAMESS supplementary output files will be written to /home/yyang173/Desktop/attempts/drag-node/hf_grid/ccd_cis/sep1.30
Copying input file sep1.30-cis.inp to your run's scratch directory...
 
Assuming a single but multicore node.
 

 Distributed Data Interface kickoff program.
 Initiating 16 compute processes on 1 nodes to run the following command:
 /opt/intel17/apps/gamess_2016R1/gamess.00.x sep1.30-cis 

          ******************************************************
          *         GAMESS VERSION = 18 AUG 2016 (R1)          *
          *             FROM IOWA STATE UNIVERSITY             *
          * M.W.SCHMIDT, K.K.BALDRIDGE, J.A.BOATZ, S.T.ELBERT, *
          *   M.S.GORDON, J.H.JENSEN, S.KOSEKI, N.MATSUNAGA,   *
          *          K.A.NGUYEN, S.J.SU, T.L.WINDUS,           *
          *       TOGETHER WITH M.DUPUIS, J.A.MONTGOMERY       *
          *         J.COMPUT.CHEM.  14, 1347-1363(1993)        *
          **************** 64 BIT INTEL VERSION ****************

  SINCE 1993, STUDENTS AND POSTDOCS WORKING AT IOWA STATE UNIVERSITY
  AND ALSO IN THEIR VARIOUS JOBS AFTER LEAVING ISU HAVE MADE IMPORTANT
  CONTRIBUTIONS TO THE CODE:
     IVANA ADAMOVIC, CHRISTINE AIKENS, YURI ALEXEEV, POOJA ARORA,
     ANDREY ASADCHEV, ROB BELL, PRADIPTA BANDYOPADHYAY, JONATHAN BENTZ,
     BRETT BODE, KURT BRORSEN, CALEB CARLIN, GALINA CHABAN, WEI CHEN,
     CHEOL HO CHOI, PAUL DAY, ALBERT DEFUSCO, NUWAN DESILVA, TIM DUDLEY,
     DMITRI FEDOROV, GRAHAM FLETCHER, MARK FREITAG, KURT GLAESEMANN,
     DAN KEMP, GRANT MERRILL, NORIYUKI MINEZAWA, JONATHAN MULLIN,
     TAKESHI NAGATA, SEAN NEDD, HEATHER NETZLOFF, BOSILJKA NJEGIC, RYAN OLSON,
     MIKE PAK, SPENCER PRUITT, LUKE ROSKOP, JIM SHOEMAKER, LYUDMILA SLIPCHENKO,
     TONY SMITH, SAROM SOK LEANG, JIE SONG, TETSUYA TAKETSUGU, SIMON WEBB,
     PENG XU, SOOHAENG YOO, FEDERICO ZAHARIEV

  ADDITIONAL CODE HAS BEEN PROVIDED BY COLLABORATORS IN OTHER GROUPS:
     IOWA STATE UNIVERSITY:
          JOE IVANIC, AARON WEST, LAIMUTIS BYTAUTAS, KLAUS RUEDENBERG
     UNIVERSITY OF TOKYO: KIMIHIKO HIRAO, TAKAHITO NAKAJIMA,
          TAKAO TSUNEDA, MUNEAKI KAMIYA, SUSUMU YANAGISAWA,
          KIYOSHI YAGI, MAHITO CHIBA, SEIKEN TOKURA, NAOAKI KAWAKAMI
     UNIVERSITY OF AARHUS: FRANK JENSEN
     UNIVERSITY OF IOWA: VISVALDAS KAIRYS, HUI LI
     NATIONAL INST. OF STANDARDS AND TECHNOLOGY: WALT STEVENS, DAVID GARMER
     UNIVERSITY OF PISA: BENEDETTA MENNUCCI, JACOPO TOMASI
     UNIVERSITY OF MEMPHIS: HENRY KURTZ, PRAKASHAN KORAMBATH
     UNIVERSITY OF ALBERTA: TOBY ZENG, MARIUSZ KLOBUKOWSKI
     UNIVERSITY OF NEW ENGLAND: MARK SPACKMAN
     MIE UNIVERSITY: HIROAKI UMEDA
     NAT. INST. OF ADVANCED INDUSTRIAL SCIENCE AND TECHNOLOGY: KAZUO KITAURA
     MICHIGAN STATE UNIVERSITY:
          KAROL KOWALSKI, MARTA WLOCH, JEFFREY GOUR, JESSE LUTZ,
          WEI LI, PIOTR PIECUCH
     UNIVERSITY OF SILESIA: MONIKA MUSIAL, STANISLAW KUCHARSKI
     FACULTES UNIVERSITAIRES NOTRE-DAME DE LA PAIX:
          OLIVIER QUINET, BENOIT CHAMPAGNE
     UNIVERSITY OF CALIFORNIA - SANTA BARBARA: BERNARD KIRTMAN
     INSTITUTE FOR MOLECULAR SCIENCE:
          KAZUYA ISHIMURA, MICHIO KATOUDA, AND SHIGERU NAGASE
     UNIVERSITY OF NOTRE DAME: ANNA POMOGAEVA, DAN CHIPMAN
     KYUSHU UNIVERSITY:
          HARUYUKI NAKANO,
          FENG LONG GU, JACEK KORCHOWIEC, MARCIN MAKOWSKI, AND YURIKO AOKI,
          HIROTOSHI MORI AND EISAKU MIYOSHI
     PENNSYLVANIA STATE UNIVERSITY:
          TZVETELIN IORDANOV, CHET SWALINA, JONATHAN SKONE,
          SHARON HAMMES-SCHIFFER
     WASEDA UNIVERSITY:
          MASATO KOBAYASHI, TOMOKO AKAMA, TSUGUKI TOUMA,
          TAKESHI YOSHIKAWA, YASUHIRO IKABATA, JUNJI SEINO,
          YUYA NAKAJIMA, HIROMI NAKAI
     NANJING UNIVERSITY: SHUHUA LI
     UNIVERSITY OF NEBRASKA:
          PEIFENG SU, DEJUN SI, NANDUN THELLAMUREGE, YALI WANG, HUI LI
     UNIVERSITY OF ZURICH: ROBERTO PEVERATI, KIM BALDRIDGE
     N. COPERNICUS UNIVERSITY AND JACKSON STATE UNIVERSITY:
          MARIA BARYSZ
     UNIVERSITY OF COPENHAGEN: Jimmy Kromann, CASPER STEINMANN
     TOKYO INSTITUTE OF TECHNOLOGY: HIROYA NAKATA
     NAGOYA UNIVERSITY: YOSHIO NISHIMOTO, STEPHAN IRLE
     MOSCOW STATE UNIVERSITY: VLADIMIR MIRONOV


 PARALLEL VERSION RUNNING ON       16 PROCESSORS IN        1 NODES.

 EXECUTION OF GAMESS BEGUN Mon Apr 17 23:10:19 2017

            ECHO OF THE FIRST FEW INPUT CARDS -
 INPUT CARD> $contrl coord=unique icharg=0 ispher=1 mult=1 runtyp=energy                    
 INPUT CARD>         scftyp=rhf cityp=cis units=bohr  $end                                  
 INPUT CARD> $basis  gbasis=ccd  $end                                                       
 INPUT CARD> $guess  guess=huckel  $end                                                     
 INPUT CARD> $cis    nstate=5 $end                                                          
 INPUT CARD> $DATA                                                                          
 INPUT CARD>A molecule.                                                                     
 INPUT CARD>C1                                                                              
 INPUT CARD>H 1.00       0.00000000       0.00000000       0.00000000                       
 INPUT CARD>H 1.00       1.300000000       0.00000000       0.00000000                      
 INPUT CARD> $END                                                                           
    1000000 WORDS OF MEMORY AVAILABLE

     BASIS OPTIONS
     -------------
     GBASIS=CCD          IGAUSS=       0      POLAR=NONE    
     NDFUNC=       0     NFFUNC=       0     DIFFSP=       F
     NPFUNC=       0      DIFFS=       F     BASNAM=        


     RUN TITLE
     ---------
 A molecule.                                                                     

 THE POINT GROUP OF THE MOLECULE IS C1      
 THE ORDER OF THE PRINCIPAL AXIS IS     0

 ATOM      ATOMIC                      COORDINATES (BOHR)
           CHARGE         X                   Y                   Z
 H           1.0     0.0000000000        0.0000000000        0.0000000000
 H           1.0     1.3000000000        0.0000000000        0.0000000000

          INTERNUCLEAR DISTANCES (ANGS.)
          ------------------------------

                1 H          2 H     

   1 H       0.0000000    0.6879304 *
   2 H       0.6879304 *  0.0000000  

  * ... LESS THAN  3.000


     ATOMIC BASIS SET
     ----------------
 THE CONTRACTED PRIMITIVE FUNCTIONS HAVE BEEN UNNORMALIZED
 THE CONTRACTED BASIS FUNCTIONS ARE NOW NORMALIZED TO UNITY

  SHELL TYPE  PRIMITIVE        EXPONENT          CONTRACTION COEFFICIENT(S)

 H         

      1   S       1            13.0100000    0.033498726390
      1   S       2             1.9620000    0.234800801174
      1   S       3             0.4446000    0.813682957883

      2   S       4             0.1220000    1.000000000000

      3   P       5             0.7270000    1.000000000000

 H         

      4   S       6            13.0100000    0.033498726390
      4   S       7             1.9620000    0.234800801174
      4   S       8             0.4446000    0.813682957883

      5   S       9             0.1220000    1.000000000000

      6   P      10             0.7270000    1.000000000000

 TOTAL NUMBER OF BASIS SET SHELLS             =    6
 NUMBER OF CARTESIAN GAUSSIAN BASIS FUNCTIONS =   10
 NOTE: THIS RUN WILL RESTRICT THE MO VARIATION SPACE TO SPHERICAL HARMONICS.
 THE NUMBER OF ORBITALS KEPT IN THE VARIATIONAL SPACE WILL BE PRINTED LATER.
 NUMBER OF ELECTRONS                          =    2
 CHARGE OF MOLECULE                           =    0
 SPIN MULTIPLICITY                            =    1
 NUMBER OF OCCUPIED ORBITALS (ALPHA)          =    1
 NUMBER OF OCCUPIED ORBITALS (BETA )          =    1
 TOTAL NUMBER OF ATOMS                        =    2
 THE NUCLEAR REPULSION ENERGY IS        0.7692307692

 THIS MOLECULE IS RECOGNIZED AS BEING LINEAR,
 ORBITAL LZ DEGENERACY TOLERANCE ETOLLZ= 1.00E-06

     $CONTRL OPTIONS
     ---------------
 SCFTYP=RHF          RUNTYP=ENERGY       EXETYP=RUN     
 MPLEVL=       0     CITYP =CIS          CCTYP =NONE         VBTYP =NONE    
 DFTTYP=NONE         TDDFT =NONE    
 MULT  =       1     ICHARG=       0     NZVAR =       0     COORD =UNIQUE  
 PP    =NONE         RELWFN=NONE         LOCAL =NONE         NUMGRD=       F
 ISPHER=       1     NOSYM =       0     MAXIT =      30     UNITS =BOHR    
 PLTORB=       F     MOLPLT=       F     AIMPAC=       F     FRIEND=        
 NPRINT=       7     IREST =       0     GEOM  =INPUT   
 NORMF =       0     NORMP =       0     ITOL  =      20     ICUT  =       9
 INTTYP=BEST         GRDTYP=BEST         QMTTOL= 1.0E-06

     $SYSTEM OPTIONS
     ---------------
  REPLICATED MEMORY=     1000000 WORDS (ON EVERY NODE).
 DISTRIBUTED MEMDDI=           0 MILLION WORDS IN AGGREGATE,
 MEMDDI DISTRIBUTED OVER  16 PROCESSORS IS           0 WORDS/PROCESSOR.
 TOTAL MEMORY REQUESTED ON EACH PROCESSOR=     1000000 WORDS.
 TIMLIM=      525600.00 MINUTES, OR     365.0 DAYS.
 PARALL= T  BALTYP=  DLB     KDIAG=    0  COREFL= F
 MXSEQ2=     300 MXSEQ3=     150  mem10=         0

          ----------------
          PROPERTIES INPUT
          ----------------

     MOMENTS            FIELD           POTENTIAL          DENSITY
 IEMOM =       1   IEFLD =       0   IEPOT =       0   IEDEN =       0
 WHERE =COMASS     WHERE =NUCLEI     WHERE =NUCLEI     WHERE =NUCLEI  
 OUTPUT=BOTH       OUTPUT=BOTH       OUTPUT=BOTH       OUTPUT=BOTH    
 IEMINT=       0   IEFINT=       0                     IEDINT=       0
                                                       MORB  =       0
          EXTRAPOLATION IN EFFECT
          SOSCF IN EFFECT
 ORBITAL PRINTING OPTION: NPREO=     1    10     2     1

     -------------------------------
     INTEGRAL TRANSFORMATION OPTIONS
     -------------------------------
     NWORD  =            0
     CUTOFF = 1.0E-09     MPTRAN =       0
     DIRTRF =       F     AOINTS =DUP     

          ----------------------
          INTEGRAL INPUT OPTIONS
          ----------------------
 NOPK  =       1 NORDER=       0 SCHWRZ=       F

     ------------------------------
     CI-SINGLES CONTROL INFORMATION
     ------------------------------
     NACORE =        0  NBCORE   =        0
     NSTATE =        5  IROOT    =        1
     HAMTYP = SAPS      SAP MULT =        1
     DIAGZN = DAVID     MXVEC    =       40
     NDAVIT =       50  DAVCVG   = 1.00E-05
     CISPRP =        F  NGSVEC   =       10
     MNMEDG =        F  MNMEOP   =        F
     CHFSLV = CONJG     RDCISV   =        F
     DGAPRX =        T

     NUMBER OF CORE -A-  ORBITALS =     0
     NUMBER OF CORE -B-  ORBITALS =     0
     NUMBER OF OCC. -A-  ORBITALS =     1
     NUMBER OF OCC. -B-  ORBITALS =     1
     NUMBER OF MOLECULAR ORBITALS =    10
     NUMBER OF   BASIS  FUNCTIONS =    10


     ------------------------------------------
     THE POINT GROUP IS C1 , NAXIS= 0, ORDER= 1
     ------------------------------------------

 -- VARIATIONAL SPACE WILL BE RESTRICTED TO PURE SPHERICAL HARMONICS ONLY --
 AFTER EXCLUDING CONTAMINANT COMBINATIONS FROM THE CARTESIAN GAUSSIAN BASIS
 SET, THE NUMBER OF SPHERICAL HARMONICS KEPT IN THE VARIATION SPACE IS   10

     DIMENSIONS OF THE SYMMETRY SUBSPACES ARE
 A   =   10

 ..... DONE SETTING UP THE RUN .....
 CPU     0: STEP CPU TIME=     0.02 TOTAL CPU TIME=        0.0 (    0.0 MIN)
 TOTAL WALL CLOCK TIME=        0.0 SECONDS, CPU UTILIZATION IS  50.00%

          ********************
          1 ELECTRON INTEGRALS
          ********************
 ...... END OF ONE-ELECTRON INTEGRALS ......
 CPU     0: STEP CPU TIME=     0.00 TOTAL CPU TIME=        0.0 (    0.0 MIN)
 TOTAL WALL CLOCK TIME=        0.2 SECONDS, CPU UTILIZATION IS  13.33%

          -------------
          GUESS OPTIONS
          -------------
          GUESS =HUCKEL            NORB  =       0          NORDER=       0
          MIX   =       F          PRTMO =       F          PUNMO =       F
          TOLZ  = 1.0E-08          TOLE  = 1.0E-05
          SYMDEN=       F          PURIFY=       F

 INITIAL GUESS ORBITALS GENERATED BY HUCKEL   ROUTINE.
 HUCKEL GUESS REQUIRES      2162 WORDS.

 SYMMETRIES FOR INITIAL GUESS ORBITALS FOLLOW.   BOTH SET(S).
     1 ORBITALS ARE OCCUPIED (    0 CORE ORBITALS).
     1=A        2=A        3=A        4=A        5=A        6=A        7=A   
     8=A        9=A       10=A   
 ...... END OF INITIAL ORBITAL SELECTION ......
 CPU     0: STEP CPU TIME=     0.00 TOTAL CPU TIME=        0.0 (    0.0 MIN)
 TOTAL WALL CLOCK TIME=        0.2 SECONDS, CPU UTILIZATION IS   9.09%

                    ----------------------
                    AO INTEGRAL TECHNOLOGY
                    ----------------------
     S,P,L SHELL ROTATED AXIS INTEGRALS, REPROGRAMMED BY
        KAZUYA ISHIMURA (IMS) AND JOSE SIERRA (SYNSTAR).
     S,P,D,L SHELL ROTATED AXIS INTEGRALS PROGRAMMED BY
        KAZUYA ISHIMURA (INSTITUTE FOR MOLECULAR SCIENCE).
     S,P,D,F,G SHELL TO TOTAL QUARTET ANGULAR MOMENTUM SUM 5,
        ERIC PROGRAM BY GRAHAM FLETCHER (ELORET AND NASA ADVANCED
        SUPERCOMPUTING DIVISION, AMES RESEARCH CENTER).
     S,P,D,F,G,L SHELL GENERAL RYS QUADRATURE PROGRAMMED BY
        MICHEL DUPUIS (PACIFIC NORTHWEST NATIONAL LABORATORY).

          --------------------
          2 ELECTRON INTEGRALS
          --------------------

 THE -PK- OPTION IS OFF, THE INTEGRALS ARE NOT IN SUPERMATRIX FORM.
 STORING   15000 INTEGRALS/RECORD ON DISK, USING 12 BYTES/INTEGRAL.
 TWO ELECTRON INTEGRAL EVALUATION REQUIRES   89377 WORDS OF MEMORY.
 II,JST,KST,LST =  1  1  1  1 NREC =         1 INTLOC =    1
 II,JST,KST,LST =  2  1  1  1 NREC =         1 INTLOC =    2
 II,JST,KST,LST =  3  1  1  1 NREC =         1 INTLOC =    6
 II,JST,KST,LST =  4  1  1  1 NREC =         1 INTLOC =   33
 II,JST,KST,LST =  5  1  1  1 NREC =         1 INTLOC =   33
 II,JST,KST,LST =  6  1  1  1 NREC =         1 INTLOC =   59
 TOTAL NUMBER OF NONZERO TWO-ELECTRON INTEGRALS =                 512
         16 INTEGRAL RECORDS WERE STORED ON DISK FILE  8.
  ...... END OF TWO-ELECTRON INTEGRALS .....
 CPU     0: STEP CPU TIME=     0.00 TOTAL CPU TIME=        0.0 (    0.0 MIN)
 TOTAL WALL CLOCK TIME=        0.3 SECONDS, CPU UTILIZATION IS   7.41%

          --------------------------
                 RHF SCF CALCULATION
          --------------------------

     NUCLEAR ENERGY =         0.7692307692
     MAXIT =   30     NPUNCH=    2
     EXTRAP=T  DAMP=F  SHIFT=F  RSTRCT=F  DIIS=F  DEM=F  SOSCF=T
     DENSITY MATRIX CONV=  1.00E-06
     SOSCF WILL OPTIMIZE       9 ORBITAL ROTATIONS, SOGTOL=   0.250
     MEMORY REQUIRED FOR RHF ITERS=     30876 WORDS.

 ITER EX DEM     TOTAL ENERGY        E CHANGE  DENSITY CHANGE     ORB. GRAD
   1  0  0       -1.1184595630    -1.1184595630   0.053872698   0.000000000
          ---------------START SECOND ORDER SCF---------------
   2  1  0       -1.1255611687    -0.0071016057   0.010706318   0.012645089
   3  2  0       -1.1258066501    -0.0002454814   0.002619633   0.002186950
   4  3  0       -1.1258158914    -0.0000092413   0.000017351   0.000037769
   5  4  0       -1.1258158940    -0.0000000027   0.000002696   0.000005936
   6  5  0       -1.1258158941    -0.0000000001   0.000000000   0.000000000

          -----------------
          DENSITY CONVERGED
          -----------------
     TIME TO FORM FOCK OPERATORS=       0.0 SECONDS (       0.0 SEC/ITER)
     TIME TO SOLVE SCF EQUATIONS=       0.0 SECONDS (       0.0 SEC/ITER)

 FINAL RHF ENERGY IS       -1.1258158941 AFTER   6 ITERATIONS

 LZ VALUE ANALYSIS FOR THE MOS
 ----------------------------------------
 MO     1 (    1) HAS LZ(WEIGHT)= 0.00(100.0%) 
 MO     2 (    2) HAS LZ(WEIGHT)= 0.00(100.0%) 
 MO     3 (    3) HAS LZ(WEIGHT)= 0.00(100.0%) 
 MO     4 (    4) HAS LZ(WEIGHT)= 0.00(100.0%) 
 MO     5 (    5) HAS LZ(WEIGHT)= 0.00(100.0%) 
 MO     6 (    5) HAS LZ(WEIGHT)= 0.00(100.0%) 
 MO     7 (    6) HAS LZ(WEIGHT)= 0.00(100.0%) 
 MO     8 (    7) HAS LZ(WEIGHT)= 0.00(100.0%) 
 MO     9 (    7) HAS LZ(WEIGHT)= 0.00(100.0%) 
 MO    10 (    8) HAS LZ(WEIGHT)= 0.00(100.0%) 

          ------------
          EIGENVECTORS
          ------------

                      1          2          3          4          5
                   -0.6087     0.2072     0.4668     0.9773     1.2995
                     A          A          A          A          A   
    1  H  1  S    0.409775   0.140488  -0.683805   0.692102   0.000000
    2  H  1  S    0.161371   2.125774   0.724673  -1.652673   0.000000
    3  H  1  X    0.023410   0.015701  -0.001740  -0.451222   0.000000
    4  H  1  Y    0.000000   0.000000   0.000000   0.000000  -0.061456
    5  H  1  Z    0.000000   0.000000   0.000000   0.000000   0.566291
    6  H  2  S    0.409775  -0.140488  -0.683805  -0.692102   0.000000
    7  H  2  S    0.161371  -2.125774   0.724673   1.652673   0.000000
    8  H  2  X   -0.023410   0.015701   0.001740  -0.451222   0.000000
    9  H  2  Y    0.000000   0.000000   0.000000   0.000000  -0.061456
   10  H  2  Z    0.000000   0.000000   0.000000   0.000000   0.566291

                      6          7          8          9         10
                    1.2995     2.0055     2.0789     2.0789     3.9764
                     A          A          A          A          A   
    1  H  1  S    0.000000   0.452620   0.000000   0.000000  -3.253735
    2  H  1  S    0.000000  -0.225358   0.000000   0.000000   0.058449
    3  H  1  X    0.000000  -0.763535   0.000000   0.000000  -2.164641
    4  H  1  Y    0.566291   0.000000  -0.651503  -0.815411   0.000000
    5  H  1  Z    0.061456   0.000000  -0.815411   0.651503   0.000000
    6  H  2  S    0.000000   0.452620   0.000000   0.000000   3.253735
    7  H  2  S    0.000000  -0.225358   0.000000   0.000000  -0.058449
    8  H  2  X    0.000000   0.763535   0.000000   0.000000  -2.164641
    9  H  2  Y    0.566291   0.000000   0.651503   0.815411   0.000000
   10  H  2  Z    0.061456   0.000000   0.815411  -0.651503   0.000000
 ...... END OF RHF CALCULATION ......
 CPU     0: STEP CPU TIME=     0.02 TOTAL CPU TIME=        0.0 (    0.0 MIN)
 TOTAL WALL CLOCK TIME=        0.7 SECONDS, CPU UTILIZATION IS   6.15%

     ----------------------------------------------------------------
     PROPERTY VALUES FOR THE RHF   SELF-CONSISTENT FIELD WAVEFUNCTION
     ----------------------------------------------------------------

          -----------------
          ENERGY COMPONENTS
          -----------------

         WAVEFUNCTION NORMALIZATION =       1.0000000000

                ONE ELECTRON ENERGY =      -2.5727146478
                TWO ELECTRON ENERGY =       0.6776679845
           NUCLEAR REPULSION ENERGY =       0.7692307692
                                      ------------------
                       TOTAL ENERGY =      -1.1258158941

 ELECTRON-ELECTRON POTENTIAL ENERGY =       0.6776679845
  NUCLEUS-ELECTRON POTENTIAL ENERGY =      -3.7191550613
   NUCLEUS-NUCLEUS POTENTIAL ENERGY =       0.7692307692
                                      ------------------
             TOTAL POTENTIAL ENERGY =      -2.2722563075
               TOTAL KINETIC ENERGY =       1.1464404134
                 VIRIAL RATIO (V/T) =       1.9820099509

  ...... PI ENERGY ANALYSIS ......

 ENERGY ANALYSIS:
            FOCK ENERGY=     -1.2173786788
          BARE H ENERGY=     -2.5727146478
     ELECTRONIC ENERGY =     -1.8950466633
         KINETIC ENERGY=      1.1464404134
          N-N REPULSION=      0.7692307692
           TOTAL ENERGY=     -1.1258158941
        SIGMA PART(1+2)=     -1.8950466633
               (K,V1,2)=      1.1464404134     -3.7191550613      0.6776679845
           PI PART(1+2)=      0.0000000000
               (K,V1,2)=      0.0000000000      0.0000000000      0.0000000000
  SIGMA SKELETON, ERROR=     -1.1258158941      0.0000000000
             MIXED PART= 0.00000E+00 0.00000E+00 0.00000E+00 0.00000E+00
 ...... END OF PI ENERGY ANALYSIS ......

          ---------------------------------------
          MULLIKEN AND LOWDIN POPULATION ANALYSES
          ---------------------------------------

               ----- POPULATIONS IN EACH AO -----
                             MULLIKEN      LOWDIN
              1  H  1  S      0.71951     0.61205
              2  H  1  S      0.26758     0.35488
              3  H  1  X      0.01291     0.03307
              4  H  1  Y      0.00000     0.00000
              5  H  1  Z      0.00000     0.00000
              6  H  2  S      0.71951     0.61205
              7  H  2  S      0.26758     0.35488
              8  H  2  X      0.01291     0.03307
              9  H  2  Y      0.00000     0.00000
             10  H  2  Z      0.00000     0.00000

          ----- MULLIKEN ATOMIC OVERLAP POPULATIONS -----
          (OFF-DIAGONAL ELEMENTS NEED TO BE MULTIPLIED BY 2)

             1           2

    1    0.5701550
    2    0.4298450   0.5701550

          TOTAL MULLIKEN AND LOWDIN ATOMIC POPULATIONS
       ATOM         MULL.POP.    CHARGE          LOW.POP.     CHARGE
    1 H             1.000000   -0.000000         1.000000   -0.000000
    2 H             1.000000   -0.000000         1.000000   -0.000000

          MULLIKEN SPHERICAL HARMONIC POPULATIONS
       ATOM           S       P       D      F      G      H      I    TOTAL
    1 H             0.99    0.01    0.00   0.00   0.00   0.00   0.00    1.00
    2 H             0.99    0.01    0.00   0.00   0.00   0.00   0.00    1.00

          ---------------------
          ELECTROSTATIC MOMENTS
          ---------------------

 POINT   1           X           Y           Z (BOHR)    CHARGE
                 0.650000    0.000000    0.000000       -0.00 (A.U.)
         DX          DY          DZ         /D/  (DEBYE)
     0.000000    0.000000    0.000000    0.000000
 ...... END OF PROPERTY EVALUATION ......
 CPU     0: STEP CPU TIME=     0.00 TOTAL CPU TIME=        0.0 (    0.0 MIN)
 TOTAL WALL CLOCK TIME=        0.7 SECONDS, CPU UTILIZATION IS   5.56%

 MXVEC CANNOT BE BIGGER THAN THE NUMBER OF CIS CONFIGS
 SETTING MXVEC = NCFG


          ---------------------------------------------
             ATOMIC ORBITAL BASIS CI-SINGLES ENERGY
             PROGRAM WRITTEN BY SIMON P. WEBB
          ---------------------------------------------

 # CORE ORBITALS      =    0
 # OCCUPIED ORBITALS  =    1
 # MOLECULAR ORBITALS =   10
 # BASIS FUNCTIONS    =   10

 NUMBER OF CIS SPIN-ADAPTED ANTISYMMETRIZED PRODUCTS (SAPS) IS       9

 APPROXIMATING CIS HAMILTONIAN DIAGONAL ELEMENTS USING ONLY ORBITAL ENERGIES

 -CIS- HAM. DIAGONAL ELEMENTS  TOOK      0.000 SECONDS

 MIN MEMORY REQ. FOR CIS ENERGY FOCK-LIKE BUILDS =       200 WORDS
 MEMORY REQ. FOR SINGLE BATCH BUILDS             =      1800 WORDS
 MEMORY AVAILABLE                                =    968641 WORDS

 SINGLE BATCH ENERGY CALCULATION WILL BE PERFORMED

 UNIT VECTOR GUESS AT CIS COEFFICIENTS ...

 USING IN MEMORY DIAGONALIZTION TO FIND CIS EIGENVALUES AND EIGENVECTORS ...

 STATE    1 ENERGY=       -0.5893853060
 STATE    2 ENERGY=       -0.3359441160
 STATE    3 ENERGY=        0.1079049683
 STATE    4 ENERGY=        0.3731440288
 STATE    5 ENERGY=        0.3731440288


        --------------------------------------------------------
        RESULTS FROM SPIN-ADAPTED ANTISYMMETRIZED PRODUCT (SAPS)
        BASED ATOMIC ORBITAL CI-SINGLES ENERGY CALCULATION
        --------------------------------------------------------

 PRINTING CIS COEFFICIENTS LARGER THAN  0.050000

 RHF REFERENCE ENERGY  =        -1.1258158941


 EXCITED STATE   1  ENERGY=        -0.5893853060  S = 0.0  SPACE SYM = A   

          ----------------------------------------------
          SINGLE EXCITATION               SAP COEFFICENT
          FROM MO     TO MO
          ----------------------------------------------
             1          2                   0.99995971
          ----------------------------------------------


 EXCITED STATE   2  ENERGY=        -0.3359441160  S = 0.0  SPACE SYM = A   

          ----------------------------------------------
          SINGLE EXCITATION               SAP COEFFICENT
          FROM MO     TO MO
          ----------------------------------------------
             1          3                   0.99999482
          ----------------------------------------------


 EXCITED STATE   3  ENERGY=         0.1079049683  S = 0.0  SPACE SYM = A   

          ----------------------------------------------
          SINGLE EXCITATION               SAP COEFFICENT
          FROM MO     TO MO
          ----------------------------------------------
             1          4                  -0.99994516
          ----------------------------------------------


 EXCITED STATE   4  ENERGY=         0.3731440288  S = 0.0  SPACE SYM = A   

          ----------------------------------------------
          SINGLE EXCITATION               SAP COEFFICENT
          FROM MO     TO MO
          ----------------------------------------------
             1          5                   0.14865839
             1          6                   0.98888861
          ----------------------------------------------


 EXCITED STATE   5  ENERGY=         0.3731440288  S = 0.0  SPACE SYM = A   

          ----------------------------------------------
          SINGLE EXCITATION               SAP COEFFICENT
          FROM MO     TO MO
          ----------------------------------------------
             1          5                   0.98888861
             1          6                  -0.14865839
          ----------------------------------------------

  ---------------------------------------------------------------------
                    CI-SINGLES EXCITATION ENERGIES
  STATE       HARTREE        EV      KCAL/MOL       CM-1         NM
  ---------------------------------------------------------------------
   1A     0.5364305881    14.5970    336.6153     117732.91      84.94
   1A     0.7898717781    21.4935    495.6521     173356.82      57.68
   1A     1.2337208623    33.5713    774.1716     270770.43      36.93
   1A     1.4989599229    40.7888    940.6117     328983.68      30.40
   1A     1.4989599229    40.7888    940.6117     328983.68      30.40

 -CIS- ENERGY                  TOOK      0.000 SECONDS

  ---------------------------------------------------------------------
                    CIS TRANSITION DIPOLE MOMENTS AND
                    EXPECTATION VALUES OF DIPOLE MOMENTS
  ---------------------------------------------------------------------

 GROUND STATE (SCF) DIPOLE=     0.000000     0.000000     0.000000 DEBYE

 TRANSITION FROM THE GROUND STATE TO EXCITED STATE  1

 STATE MULTIPLICITIES =   1  1
 STATE ENERGIES =         -1.1258158941       -0.5893853060
 EXCITATION ENERGY =  3.5295E+15 [1/SEC] =   117732.91 [1/CM] =     14.60 [EV]
                            X           Y           Z           NORM
 TRANSITION DIPOLE =   -1.268132   -0.000000   -0.000000    1.268132 E*BOHR
 TRANSITION DIPOLE =   -3.223294   -0.000000   -0.000000    3.223294 DEBYE
 OSCILLATOR STRENGTH =    0.575110
 EINSTEIN COEFFICIENTS: A=  5.3174E+09 1/SEC; B=  6.5266E+08 SEC/G

 TRANSITION FROM THE GROUND STATE TO EXCITED STATE  2

 STATE MULTIPLICITIES =   1  1
 STATE ENERGIES =         -1.1258158941       -0.3359441160
 EXCITATION ENERGY =  5.1971E+15 [1/SEC] =   173356.82 [1/CM] =     21.49 [EV]
                            X           Y           Z           NORM
 TRANSITION DIPOLE =    0.000000   -0.000000   -0.000000    0.000000 E*BOHR
 TRANSITION DIPOLE =    0.000000   -0.000000   -0.000000    0.000000 DEBYE
 OSCILLATOR STRENGTH =    0.000000
 EINSTEIN COEFFICIENTS: A=  5.1072E-20 1/SEC; B=  1.9636E-21 SEC/G

 TRANSITION FROM THE GROUND STATE TO EXCITED STATE  3

 STATE MULTIPLICITIES =   1  1
 STATE ENERGIES =         -1.1258158941        0.1079049683
 EXCITATION ENERGY =  8.1175E+15 [1/SEC] =   270770.43 [1/CM] =     33.57 [EV]
                            X           Y           Z           NORM
 TRANSITION DIPOLE =    0.529476    0.000000    0.000000    0.529476 E*BOHR
 TRANSITION DIPOLE =    1.345803    0.000000    0.000000    1.345803 DEBYE
 OSCILLATOR STRENGTH =    0.230578
 EINSTEIN COEFFICIENTS: A=  1.1276E+10 1/SEC; B=  1.1378E+08 SEC/G

 TRANSITION FROM THE GROUND STATE TO EXCITED STATE  4

 STATE MULTIPLICITIES =   1  1
 STATE ENERGIES =         -1.1258158941        0.3731440288
 EXCITATION ENERGY =  9.8627E+15 [1/SEC] =   328983.68 [1/CM] =     40.79 [EV]
                            X           Y           Z           NORM
 TRANSITION DIPOLE =    0.000000    0.930380    0.244826    0.962053 E*BOHR
 TRANSITION DIPOLE =    0.000000    2.364807    0.622290    2.445313 DEBYE
 OSCILLATOR STRENGTH =    0.924904
 EINSTEIN COEFFICIENTS: A=  6.6772E+10 1/SEC; B=  3.7563E+08 SEC/G

 TRANSITION FROM THE GROUND STATE TO EXCITED STATE  5

 STATE MULTIPLICITIES =   1  1
 STATE ENERGIES =         -1.1258158941        0.3731440288
 EXCITATION ENERGY =  9.8627E+15 [1/SEC] =   328983.68 [1/CM] =     40.79 [EV]
                            X           Y           Z           NORM
 TRANSITION DIPOLE =   -0.000000   -0.244826    0.930380    0.962053 E*BOHR
 TRANSITION DIPOLE =   -0.000000   -0.622290    2.364807    2.445313 DEBYE
 OSCILLATOR STRENGTH =    0.924904
 EINSTEIN COEFFICIENTS: A=  6.6772E+10 1/SEC; B=  3.7563E+08 SEC/G

 EXPECTATION VALUE DIPOLE MOMENT FOR EXCITED STATE  1

 STATE MULTIPLICITY =   1
 STATE ENERGY =         -0.5893853060
                            X           Y           Z           NORM
      STATE DIPOLE =    0.000000   -0.000000   -0.000000    0.000000 E*BOHR
      STATE DIPOLE =    0.000000   -0.000000   -0.000000    0.000000 DEBYE

 TRANSITION BETWEEN EXCITED STATES   1 AND  2

 STATE MULTIPLICITIES=  1  1
 STATE ENERGIES =         -0.5893853060       -0.3359441160
 TRANSITION ENERGY =  1.6676E+15 [1/SEC] =    55623.91 [1/CM] =        6.90 [EV]
                            X           Y           Z           NORM
 TRANSITION DIPOLE =   -1.374214    0.000000    0.000000    1.374214 E*BOHR
 TRANSITION DIPOLE =   -3.492931    0.000000    0.000000    3.492931 DEBYE
 OSCILLATOR STRENGTH =    0.319077
 EINSTEIN COEFFICIENTS: A=  6.5852E+08 1/SEC; B=  7.6642E+08 SEC/G

 TRANSITION BETWEEN EXCITED STATES   1 AND  3

 STATE MULTIPLICITIES=  1  1
 STATE ENERGIES =         -0.5893853060        0.1079049683
 TRANSITION ENERGY =  4.5879E+15 [1/SEC] =   153037.53 [1/CM] =       18.97 [EV]
                            X           Y           Z           NORM
 TRANSITION DIPOLE =    0.000000   -0.000000   -0.000000    0.000000 E*BOHR
 TRANSITION DIPOLE =    0.000000   -0.000000   -0.000000    0.000000 DEBYE
 OSCILLATOR STRENGTH =    0.000000
 EINSTEIN COEFFICIENTS: A=  2.6520E-19 1/SEC; B=  1.4821E-20 SEC/G

 TRANSITION BETWEEN EXCITED STATES   1 AND  4

 STATE MULTIPLICITIES=  1  1
 STATE ENERGIES =         -0.5893853060        0.3731440288
 TRANSITION ENERGY =  6.3331E+15 [1/SEC] =   211250.77 [1/CM] =       26.19 [EV]
                            X           Y           Z           NORM
 TRANSITION DIPOLE =   -0.000000    0.000000    0.000000    0.000000 E*BOHR
 TRANSITION DIPOLE =   -0.000000    0.000000    0.000000    0.000000 DEBYE
 OSCILLATOR STRENGTH =    0.000000
 EINSTEIN COEFFICIENTS: A=  1.4644E-20 1/SEC; B=  3.1113E-22 SEC/G

 TRANSITION BETWEEN EXCITED STATES   1 AND  5

 STATE MULTIPLICITIES=  1  1
 STATE ENERGIES =         -0.5893853060        0.3731440288
 TRANSITION ENERGY =  6.3331E+15 [1/SEC] =   211250.77 [1/CM] =       26.19 [EV]
                            X           Y           Z           NORM
 TRANSITION DIPOLE =    0.000000   -0.000000    0.000000    0.000000 E*BOHR
 TRANSITION DIPOLE =    0.000000   -0.000000    0.000000    0.000000 DEBYE
 OSCILLATOR STRENGTH =    0.000000
 EINSTEIN COEFFICIENTS: A=  1.2270E-21 1/SEC; B=  2.6069E-23 SEC/G

 EXPECTATION VALUE DIPOLE MOMENT FOR EXCITED STATE  2

 STATE MULTIPLICITY =   1
 STATE ENERGY =         -0.3359441160
                            X           Y           Z           NORM
      STATE DIPOLE =    0.000000    0.000000    0.000000    0.000000 E*BOHR
      STATE DIPOLE =    0.000000    0.000000    0.000000    0.000000 DEBYE

 TRANSITION BETWEEN EXCITED STATES   2 AND  3

 STATE MULTIPLICITIES=  1  1
 STATE ENERGIES =         -0.3359441160        0.1079049683
 TRANSITION ENERGY =  2.9204E+15 [1/SEC] =    97413.61 [1/CM] =       12.08 [EV]
                            X           Y           Z           NORM
 TRANSITION DIPOLE =   -0.967295   -0.000000   -0.000000    0.967295 E*BOHR
 TRANSITION DIPOLE =   -2.458638   -0.000000   -0.000000    2.458638 DEBYE
 OSCILLATOR STRENGTH =    0.276861
 EINSTEIN COEFFICIENTS: A=  1.7525E+09 1/SEC; B=  3.7973E+08 SEC/G

 TRANSITION BETWEEN EXCITED STATES   2 AND  4

 STATE MULTIPLICITIES=  1  1
 STATE ENERGIES =         -0.3359441160        0.3731440288
 TRANSITION ENERGY =  4.6656E+15 [1/SEC] =   155626.86 [1/CM] =       19.30 [EV]
                            X           Y           Z           NORM
 TRANSITION DIPOLE =   -0.000000    0.104755    0.027566    0.108321 E*BOHR
 TRANSITION DIPOLE =   -0.000000    0.266262    0.070066    0.275326 DEBYE
 OSCILLATOR STRENGTH =    0.005547
 EINSTEIN COEFFICIENTS: A=  8.9609E+07 1/SEC; B=  4.7619E+06 SEC/G

 TRANSITION BETWEEN EXCITED STATES   2 AND  5

 STATE MULTIPLICITIES=  1  1
 STATE ENERGIES =         -0.3359441160        0.3731440288
 TRANSITION ENERGY =  4.6656E+15 [1/SEC] =   155626.86 [1/CM] =       19.30 [EV]
                            X           Y           Z           NORM
 TRANSITION DIPOLE =    0.000000   -0.027566    0.104755    0.108321 E*BOHR
 TRANSITION DIPOLE =    0.000000   -0.070066    0.266262    0.275326 DEBYE
 OSCILLATOR STRENGTH =    0.005547
 EINSTEIN COEFFICIENTS: A=  8.9609E+07 1/SEC; B=  4.7619E+06 SEC/G

 EXPECTATION VALUE DIPOLE MOMENT FOR EXCITED STATE  3

 STATE MULTIPLICITY =   1
 STATE ENERGY =          0.1079049683
                            X           Y           Z           NORM
      STATE DIPOLE =   -0.000000   -0.000000   -0.000000    0.000000 E*BOHR
      STATE DIPOLE =   -0.000000   -0.000000   -0.000000    0.000000 DEBYE

 TRANSITION BETWEEN EXCITED STATES   3 AND  4

 STATE MULTIPLICITIES=  1  1
 STATE ENERGIES =          0.1079049683        0.3731440288
 TRANSITION ENERGY =  1.7452E+15 [1/SEC] =    58213.24 [1/CM] =        7.22 [EV]
                            X           Y           Z           NORM
 TRANSITION DIPOLE =   -0.000000    0.000000   -0.000000    0.000000 E*BOHR
 TRANSITION DIPOLE =   -0.000000    0.000000   -0.000000    0.000000 DEBYE
 OSCILLATOR STRENGTH =    0.000000
 EINSTEIN COEFFICIENTS: A=  4.4597E-23 1/SEC; B=  4.5282E-23 SEC/G

 TRANSITION BETWEEN EXCITED STATES   3 AND  5

 STATE MULTIPLICITIES=  1  1
 STATE ENERGIES =          0.1079049683        0.3731440288
 TRANSITION ENERGY =  1.7452E+15 [1/SEC] =    58213.24 [1/CM] =        7.22 [EV]
                            X           Y           Z           NORM
 TRANSITION DIPOLE =    0.000000    0.000000    0.000000    0.000000 E*BOHR
 TRANSITION DIPOLE =    0.000000    0.000000    0.000000    0.000000 DEBYE
 OSCILLATOR STRENGTH =    0.000000
 EINSTEIN COEFFICIENTS: A=  1.9756E-22 1/SEC; B=  2.0059E-22 SEC/G

 EXPECTATION VALUE DIPOLE MOMENT FOR EXCITED STATE  4

 STATE MULTIPLICITY =   1
 STATE ENERGY =          0.3731440288
                            X           Y           Z           NORM
      STATE DIPOLE =    0.000000   -0.000000   -0.000000    0.000000 E*BOHR
      STATE DIPOLE =    0.000000   -0.000000   -0.000000    0.000000 DEBYE

 TRANSITION BETWEEN EXCITED STATES   4 AND  5

 STATE MULTIPLICITIES=  1  1
 STATE ENERGIES =          0.3731440288        0.3731440288
 TRANSITION ENERGY =  2.9220E+00 [1/SEC] =        0.00 [1/CM] =        0.00 [EV]
                            X           Y           Z           NORM
 TRANSITION DIPOLE =   -0.000000   -0.000000    0.000000    0.000000 E*BOHR
 TRANSITION DIPOLE =   -0.000000   -0.000000    0.000000    0.000000 DEBYE
 OSCILLATOR STRENGTH =    0.000000
 EINSTEIN COEFFICIENTS: A=  6.9313E-69 1/SEC; B=  1.4995E-24 SEC/G

 EXPECTATION VALUE DIPOLE MOMENT FOR EXCITED STATE  5

 STATE MULTIPLICITY =   1
 STATE ENERGY =          0.3731440288
                            X           Y           Z           NORM
      STATE DIPOLE =   -0.000000   -0.000000    0.000000    0.000000 E*BOHR
      STATE DIPOLE =   -0.000000   -0.000000    0.000000    0.000000 DEBYE

 CIS NATURAL ORBITAL OCCUPATION NUMBERS FOR EXCITED STATE    1 ARE
  1.0000 1.0000 0.0000 0.0000 0.0000 0.0000 0.0000 0.0000-0.0000-0.0000
 THERE ARE     1.0000 ELECTRONS IN PRINCIPAL CIS NATURAL ORBITALS.
 THERE ARE     1.0000 ELECTRONS IN SECONDARY CIS NATURAL ORBITALS.

          --------------------
          CIS NATURAL ORBITALS
          --------------------

                      1          2          3          4          5

                    1.0000     1.0000     0.0000     0.0000     0.0000

    1  H  1  S    0.409775  -0.133270   3.310278   0.001033   0.330200
    2  H  1  S    0.161371  -2.112582  -0.232793   0.211148  -1.654225
    3  H  1  X    0.023410  -0.003545   2.102105  -0.638181  -0.685808
    4  H  1  Y    0.000000   0.000000   0.004426   0.000203   0.000000
    5  H  1  Z    0.000000   0.000000   0.002023  -0.000631   0.000000
    6  H  2  S    0.409775   0.133270  -3.310278   0.001033  -0.330200
    7  H  2  S    0.161371   2.112582   0.232794   0.211148   1.654225
    8  H  2  X   -0.023410  -0.003545   2.102107   0.638181  -0.685808
    9  H  2  Y    0.000000   0.000000   0.004426   0.000203   0.000000
   10  H  2  Z    0.000000   0.000000   0.002023  -0.000631   0.000000

                      6          7          8          9         10

                    0.0000     0.0000     0.0000    -0.0000    -0.0000

    1  H  1  S    0.000000   0.000000  -0.000001  -0.028280  -0.820033
    2  H  1  S    0.000000   0.000000  -0.000244   0.002018   0.728940
    3  H  1  X    0.000000   0.000000   0.000738  -0.018046   0.419182
    4  H  1  Y   -0.623869   0.836743   0.236760   0.518061  -0.000000
    5  H  1  Z   -0.836743  -0.623869  -0.518080   0.236751   0.000000
    6  H  2  S    0.000000   0.000000  -0.000001   0.028281  -0.820033
    7  H  2  S    0.000000   0.000000  -0.000244  -0.001960   0.728940
    8  H  2  X    0.000000   0.000000  -0.000738  -0.017872  -0.419182
    9  H  2  Y    0.623869  -0.836743   0.236760   0.518061  -0.000000
   10  H  2  Z    0.836743   0.623869  -0.518080   0.236751   0.000000

 THE CIS NATURAL ORBITALS HAVE BEEN PUNCHED.

 ..... DONE WITH CIS ENERGY .....

 CPU     0: STEP CPU TIME=     0.00 TOTAL CPU TIME=        0.0 (    0.0 MIN)
 TOTAL WALL CLOCK TIME=        0.9 SECONDS, CPU UTILIZATION IS   4.40%

     -------------------------------------------------------------
     CIS   PROPERTIES...FOR THE WAVEFUNCTION OF EXCITED STATE    1
                 USING THE EXPECTATION VALUE DENSITY
     -------------------------------------------------------------

          -----------------
          ENERGY COMPONENTS
          -----------------

         WAVEFUNCTION NORMALIZATION =       1.0000000000

                ONE ELECTRON ENERGY =      -1.7939942929
                TWO ELECTRON ENERGY =       0.4353782177
           NUCLEAR REPULSION ENERGY =       0.7692307692
                                      ------------------
                       TOTAL ENERGY =      -0.5893853060

 ELECTRON-ELECTRON POTENTIAL ENERGY =       0.4353782177
  NUCLEUS-ELECTRON POTENTIAL ENERGY =      -2.7040469739
   NUCLEUS-NUCLEUS POTENTIAL ENERGY =       0.7692307692
                                      ------------------
             TOTAL POTENTIAL ENERGY =      -1.4994379870
               TOTAL KINETIC ENERGY =       0.9100526810
                 VIRIAL RATIO (V/T) =       1.6476386678

          ---------------------------------------
          MULLIKEN AND LOWDIN POPULATION ANALYSES
          ---------------------------------------

               ----- POPULATIONS IN EACH AO -----
                             MULLIKEN      LOWDIN
              1  H  1  S      0.39578     0.35644
              2  H  1  S      0.59919     0.54364
              3  H  1  X      0.00503     0.09992
              4  H  1  Y      0.00000     0.00000
              5  H  1  Z      0.00000     0.00000
              6  H  2  S      0.39578     0.35644
              7  H  2  S      0.59919     0.54364
              8  H  2  X      0.00503     0.09992
              9  H  2  Y      0.00000     0.00000
             10  H  2  Z      0.00000     0.00000

          ----- MULLIKEN ATOMIC OVERLAP POPULATIONS -----
          (OFF-DIAGONAL ELEMENTS NEED TO BE MULTIPLIED BY 2)

             1           2

    1    5.1514912
    2   -4.1514912   5.1514912

          TOTAL MULLIKEN AND LOWDIN ATOMIC POPULATIONS
       ATOM         MULL.POP.    CHARGE          LOW.POP.     CHARGE
    1 H             1.000000   -0.000000         1.000000   -0.000000
    2 H             1.000000    0.000000         1.000000   -0.000000

          MULLIKEN SPHERICAL HARMONIC POPULATIONS
       ATOM           S       P       D      F      G      H      I    TOTAL
    1 H             0.99    0.01    0.00   0.00   0.00   0.00   0.00    1.00
    2 H             0.99    0.01    0.00   0.00   0.00   0.00   0.00    1.00

          ---------------------
          ELECTROSTATIC MOMENTS
          ---------------------

 POINT   1           X           Y           Z (BOHR)    CHARGE
                 0.650000    0.000000    0.000000        0.00 (A.U.)
         DX          DY          DZ         /D/  (DEBYE)
     0.000000   -0.000000   -0.000000    0.000000
 ...... END OF PROPERTY EVALUATION ......
 CPU     0: STEP CPU TIME=     0.01 TOTAL CPU TIME=        0.0 (    0.0 MIN)
 TOTAL WALL CLOCK TIME=        1.0 SECONDS, CPU UTILIZATION IS   5.00%
                580000  WORDS OF DYNAMIC MEMORY USED
 EXECUTION OF GAMESS TERMINATED NORMALLY Mon Apr 17 23:10:20 2017
 DDI: 263640 bytes (0.3 MB / 0 MWords) used by master data server.

 ----------------------------------------
 CPU timing information for all processes
 ========================================
 0: 0.24 + 0.31 = 0.55
 1: 0.06 + 0.20 = 0.27
 2: 0.07 + 0.23 = 0.31
 3: 0.06 + 0.18 = 0.24
 4: 0.07 + 0.27 = 0.35
 5: 0.08 + 0.18 = 0.27
 6: 0.08 + 0.19 = 0.28
 7: 0.08 + 0.16 = 0.25
 8: 0.07 + 0.24 = 0.31
 9: 0.07 + 0.14 = 0.21
 10: 0.08 + 0.19 = 0.28
 11: 0.07 + 0.14 = 0.22
 12: 0.08 + 0.22 = 0.30
 13: 0.07 + 0.15 = 0.23
 14: 0.09 + 0.17 = 0.27
 15: 0.06 + 0.16 = 0.22
 ----------------------------------------
 ddikick.x: exited gracefully.
----- accounting info -----
Files used on the master node kylin.physics.illinois.edu were:
-rw-rw-r--. 1 yyang173 yyang173     331 Apr 17 23:10 /scr/yyang173/sep1.30-cis.F05
-rw-rw-r--. 1 yyang173 yyang173  180016 Apr 17 23:10 /scr/yyang173/sep1.30-cis.F08
-rw-rw-r--. 1 yyang173 yyang173  180016 Apr 17 23:10 /scr/yyang173/sep1.30-cis.F08.001
-rw-rw-r--. 1 yyang173 yyang173  180016 Apr 17 23:10 /scr/yyang173/sep1.30-cis.F08.002
-rw-rw-r--. 1 yyang173 yyang173  180016 Apr 17 23:10 /scr/yyang173/sep1.30-cis.F08.003
-rw-rw-r--. 1 yyang173 yyang173  180016 Apr 17 23:10 /scr/yyang173/sep1.30-cis.F08.004
-rw-rw-r--. 1 yyang173 yyang173  180016 Apr 17 23:10 /scr/yyang173/sep1.30-cis.F08.005
-rw-rw-r--. 1 yyang173 yyang173  180016 Apr 17 23:10 /scr/yyang173/sep1.30-cis.F08.006
-rw-rw-r--. 1 yyang173 yyang173  180016 Apr 17 23:10 /scr/yyang173/sep1.30-cis.F08.007
-rw-rw-r--. 1 yyang173 yyang173  180016 Apr 17 23:10 /scr/yyang173/sep1.30-cis.F08.008
-rw-rw-r--. 1 yyang173 yyang173  180016 Apr 17 23:10 /scr/yyang173/sep1.30-cis.F08.009
-rw-rw-r--. 1 yyang173 yyang173  180016 Apr 17 23:10 /scr/yyang173/sep1.30-cis.F08.010
-rw-rw-r--. 1 yyang173 yyang173  180016 Apr 17 23:10 /scr/yyang173/sep1.30-cis.F08.011
-rw-rw-r--. 1 yyang173 yyang173  180016 Apr 17 23:10 /scr/yyang173/sep1.30-cis.F08.012
-rw-rw-r--. 1 yyang173 yyang173  180016 Apr 17 23:10 /scr/yyang173/sep1.30-cis.F08.013
-rw-rw-r--. 1 yyang173 yyang173  180016 Apr 17 23:10 /scr/yyang173/sep1.30-cis.F08.014
-rw-rw-r--. 1 yyang173 yyang173  180016 Apr 17 23:10 /scr/yyang173/sep1.30-cis.F08.015
-rw-rw-r--. 1 yyang173 yyang173 1636000 Apr 17 23:10 /scr/yyang173/sep1.30-cis.F10
-rw-rw-r--. 1 yyang173 yyang173     400 Apr 17 23:10 /scr/yyang173/sep1.30-cis.F12
Mon Apr 17 23:10:23 CDT 2017
0.166u 0.062s 0:04.52 4.8%	0+0k 0+16io 0pf+0w
