----- GAMESS execution script 'rungms' -----
This job is running on host kylin.physics.illinois.edu
under operating system Linux at Mon Apr 17 23:10:14 CDT 2017
Available scratch disk space (Kbyte units) at beginning of the job is
Filesystem                    1K-blocks     Used Available Use% Mounted on
/dev/mapper/fedora_kylin-root 110123880 60566544  44515220  58% /
GAMESS temporary binary files will be written to /scr/yyang173
GAMESS supplementary output files will be written to /home/yyang173/Desktop/attempts/drag-node/hf_grid/ccd_cis/sep1.20
Copying input file sep1.20-cis.inp to your run's scratch directory...
 
Assuming a single but multicore node.
 

 Distributed Data Interface kickoff program.
 Initiating 16 compute processes on 1 nodes to run the following command:
 /opt/intel17/apps/gamess_2016R1/gamess.00.x sep1.20-cis 

          ******************************************************
          *         GAMESS VERSION = 18 AUG 2016 (R1)          *
          *             FROM IOWA STATE UNIVERSITY             *
          * M.W.SCHMIDT, K.K.BALDRIDGE, J.A.BOATZ, S.T.ELBERT, *
          *   M.S.GORDON, J.H.JENSEN, S.KOSEKI, N.MATSUNAGA,   *
          *          K.A.NGUYEN, S.J.SU, T.L.WINDUS,           *
          *       TOGETHER WITH M.DUPUIS, J.A.MONTGOMERY       *
          *         J.COMPUT.CHEM.  14, 1347-1363(1993)        *
          **************** 64 BIT INTEL VERSION ****************

  SINCE 1993, STUDENTS AND POSTDOCS WORKING AT IOWA STATE UNIVERSITY
  AND ALSO IN THEIR VARIOUS JOBS AFTER LEAVING ISU HAVE MADE IMPORTANT
  CONTRIBUTIONS TO THE CODE:
     IVANA ADAMOVIC, CHRISTINE AIKENS, YURI ALEXEEV, POOJA ARORA,
     ANDREY ASADCHEV, ROB BELL, PRADIPTA BANDYOPADHYAY, JONATHAN BENTZ,
     BRETT BODE, KURT BRORSEN, CALEB CARLIN, GALINA CHABAN, WEI CHEN,
     CHEOL HO CHOI, PAUL DAY, ALBERT DEFUSCO, NUWAN DESILVA, TIM DUDLEY,
     DMITRI FEDOROV, GRAHAM FLETCHER, MARK FREITAG, KURT GLAESEMANN,
     DAN KEMP, GRANT MERRILL, NORIYUKI MINEZAWA, JONATHAN MULLIN,
     TAKESHI NAGATA, SEAN NEDD, HEATHER NETZLOFF, BOSILJKA NJEGIC, RYAN OLSON,
     MIKE PAK, SPENCER PRUITT, LUKE ROSKOP, JIM SHOEMAKER, LYUDMILA SLIPCHENKO,
     TONY SMITH, SAROM SOK LEANG, JIE SONG, TETSUYA TAKETSUGU, SIMON WEBB,
     PENG XU, SOOHAENG YOO, FEDERICO ZAHARIEV

  ADDITIONAL CODE HAS BEEN PROVIDED BY COLLABORATORS IN OTHER GROUPS:
     IOWA STATE UNIVERSITY:
          JOE IVANIC, AARON WEST, LAIMUTIS BYTAUTAS, KLAUS RUEDENBERG
     UNIVERSITY OF TOKYO: KIMIHIKO HIRAO, TAKAHITO NAKAJIMA,
          TAKAO TSUNEDA, MUNEAKI KAMIYA, SUSUMU YANAGISAWA,
          KIYOSHI YAGI, MAHITO CHIBA, SEIKEN TOKURA, NAOAKI KAWAKAMI
     UNIVERSITY OF AARHUS: FRANK JENSEN
     UNIVERSITY OF IOWA: VISVALDAS KAIRYS, HUI LI
     NATIONAL INST. OF STANDARDS AND TECHNOLOGY: WALT STEVENS, DAVID GARMER
     UNIVERSITY OF PISA: BENEDETTA MENNUCCI, JACOPO TOMASI
     UNIVERSITY OF MEMPHIS: HENRY KURTZ, PRAKASHAN KORAMBATH
     UNIVERSITY OF ALBERTA: TOBY ZENG, MARIUSZ KLOBUKOWSKI
     UNIVERSITY OF NEW ENGLAND: MARK SPACKMAN
     MIE UNIVERSITY: HIROAKI UMEDA
     NAT. INST. OF ADVANCED INDUSTRIAL SCIENCE AND TECHNOLOGY: KAZUO KITAURA
     MICHIGAN STATE UNIVERSITY:
          KAROL KOWALSKI, MARTA WLOCH, JEFFREY GOUR, JESSE LUTZ,
          WEI LI, PIOTR PIECUCH
     UNIVERSITY OF SILESIA: MONIKA MUSIAL, STANISLAW KUCHARSKI
     FACULTES UNIVERSITAIRES NOTRE-DAME DE LA PAIX:
          OLIVIER QUINET, BENOIT CHAMPAGNE
     UNIVERSITY OF CALIFORNIA - SANTA BARBARA: BERNARD KIRTMAN
     INSTITUTE FOR MOLECULAR SCIENCE:
          KAZUYA ISHIMURA, MICHIO KATOUDA, AND SHIGERU NAGASE
     UNIVERSITY OF NOTRE DAME: ANNA POMOGAEVA, DAN CHIPMAN
     KYUSHU UNIVERSITY:
          HARUYUKI NAKANO,
          FENG LONG GU, JACEK KORCHOWIEC, MARCIN MAKOWSKI, AND YURIKO AOKI,
          HIROTOSHI MORI AND EISAKU MIYOSHI
     PENNSYLVANIA STATE UNIVERSITY:
          TZVETELIN IORDANOV, CHET SWALINA, JONATHAN SKONE,
          SHARON HAMMES-SCHIFFER
     WASEDA UNIVERSITY:
          MASATO KOBAYASHI, TOMOKO AKAMA, TSUGUKI TOUMA,
          TAKESHI YOSHIKAWA, YASUHIRO IKABATA, JUNJI SEINO,
          YUYA NAKAJIMA, HIROMI NAKAI
     NANJING UNIVERSITY: SHUHUA LI
     UNIVERSITY OF NEBRASKA:
          PEIFENG SU, DEJUN SI, NANDUN THELLAMUREGE, YALI WANG, HUI LI
     UNIVERSITY OF ZURICH: ROBERTO PEVERATI, KIM BALDRIDGE
     N. COPERNICUS UNIVERSITY AND JACKSON STATE UNIVERSITY:
          MARIA BARYSZ
     UNIVERSITY OF COPENHAGEN: Jimmy Kromann, CASPER STEINMANN
     TOKYO INSTITUTE OF TECHNOLOGY: HIROYA NAKATA
     NAGOYA UNIVERSITY: YOSHIO NISHIMOTO, STEPHAN IRLE
     MOSCOW STATE UNIVERSITY: VLADIMIR MIRONOV


 PARALLEL VERSION RUNNING ON       16 PROCESSORS IN        1 NODES.

 EXECUTION OF GAMESS BEGUN Mon Apr 17 23:10:14 2017

            ECHO OF THE FIRST FEW INPUT CARDS -
 INPUT CARD> $contrl coord=unique icharg=0 ispher=1 mult=1 runtyp=energy                    
 INPUT CARD>         scftyp=rhf cityp=cis units=bohr  $end                                  
 INPUT CARD> $basis  gbasis=ccd  $end                                                       
 INPUT CARD> $guess  guess=huckel  $end                                                     
 INPUT CARD> $cis    nstate=5 $end                                                          
 INPUT CARD> $DATA                                                                          
 INPUT CARD>A molecule.                                                                     
 INPUT CARD>C1                                                                              
 INPUT CARD>H 1.00       0.00000000       0.00000000       0.00000000                       
 INPUT CARD>H 1.00       1.200000000       0.00000000       0.00000000                      
 INPUT CARD> $END                                                                           
    1000000 WORDS OF MEMORY AVAILABLE

     BASIS OPTIONS
     -------------
     GBASIS=CCD          IGAUSS=       0      POLAR=NONE    
     NDFUNC=       0     NFFUNC=       0     DIFFSP=       F
     NPFUNC=       0      DIFFS=       F     BASNAM=        


     RUN TITLE
     ---------
 A molecule.                                                                     

 THE POINT GROUP OF THE MOLECULE IS C1      
 THE ORDER OF THE PRINCIPAL AXIS IS     0

 ATOM      ATOMIC                      COORDINATES (BOHR)
           CHARGE         X                   Y                   Z
 H           1.0     0.0000000000        0.0000000000        0.0000000000
 H           1.0     1.2000000000        0.0000000000        0.0000000000

          INTERNUCLEAR DISTANCES (ANGS.)
          ------------------------------

                1 H          2 H     

   1 H       0.0000000    0.6350127 *
   2 H       0.6350127 *  0.0000000  

  * ... LESS THAN  3.000


     ATOMIC BASIS SET
     ----------------
 THE CONTRACTED PRIMITIVE FUNCTIONS HAVE BEEN UNNORMALIZED
 THE CONTRACTED BASIS FUNCTIONS ARE NOW NORMALIZED TO UNITY

  SHELL TYPE  PRIMITIVE        EXPONENT          CONTRACTION COEFFICIENT(S)

 H         

      1   S       1            13.0100000    0.033498726390
      1   S       2             1.9620000    0.234800801174
      1   S       3             0.4446000    0.813682957883

      2   S       4             0.1220000    1.000000000000

      3   P       5             0.7270000    1.000000000000

 H         

      4   S       6            13.0100000    0.033498726390
      4   S       7             1.9620000    0.234800801174
      4   S       8             0.4446000    0.813682957883

      5   S       9             0.1220000    1.000000000000

      6   P      10             0.7270000    1.000000000000

 TOTAL NUMBER OF BASIS SET SHELLS             =    6
 NUMBER OF CARTESIAN GAUSSIAN BASIS FUNCTIONS =   10
 NOTE: THIS RUN WILL RESTRICT THE MO VARIATION SPACE TO SPHERICAL HARMONICS.
 THE NUMBER OF ORBITALS KEPT IN THE VARIATIONAL SPACE WILL BE PRINTED LATER.
 NUMBER OF ELECTRONS                          =    2
 CHARGE OF MOLECULE                           =    0
 SPIN MULTIPLICITY                            =    1
 NUMBER OF OCCUPIED ORBITALS (ALPHA)          =    1
 NUMBER OF OCCUPIED ORBITALS (BETA )          =    1
 TOTAL NUMBER OF ATOMS                        =    2
 THE NUCLEAR REPULSION ENERGY IS        0.8333333333

 THIS MOLECULE IS RECOGNIZED AS BEING LINEAR,
 ORBITAL LZ DEGENERACY TOLERANCE ETOLLZ= 1.00E-06

     $CONTRL OPTIONS
     ---------------
 SCFTYP=RHF          RUNTYP=ENERGY       EXETYP=RUN     
 MPLEVL=       0     CITYP =CIS          CCTYP =NONE         VBTYP =NONE    
 DFTTYP=NONE         TDDFT =NONE    
 MULT  =       1     ICHARG=       0     NZVAR =       0     COORD =UNIQUE  
 PP    =NONE         RELWFN=NONE         LOCAL =NONE         NUMGRD=       F
 ISPHER=       1     NOSYM =       0     MAXIT =      30     UNITS =BOHR    
 PLTORB=       F     MOLPLT=       F     AIMPAC=       F     FRIEND=        
 NPRINT=       7     IREST =       0     GEOM  =INPUT   
 NORMF =       0     NORMP =       0     ITOL  =      20     ICUT  =       9
 INTTYP=BEST         GRDTYP=BEST         QMTTOL= 1.0E-06

     $SYSTEM OPTIONS
     ---------------
  REPLICATED MEMORY=     1000000 WORDS (ON EVERY NODE).
 DISTRIBUTED MEMDDI=           0 MILLION WORDS IN AGGREGATE,
 MEMDDI DISTRIBUTED OVER  16 PROCESSORS IS           0 WORDS/PROCESSOR.
 TOTAL MEMORY REQUESTED ON EACH PROCESSOR=     1000000 WORDS.
 TIMLIM=      525600.00 MINUTES, OR     365.0 DAYS.
 PARALL= T  BALTYP=  DLB     KDIAG=    0  COREFL= F
 MXSEQ2=     300 MXSEQ3=     150  mem10=         0

          ----------------
          PROPERTIES INPUT
          ----------------

     MOMENTS            FIELD           POTENTIAL          DENSITY
 IEMOM =       1   IEFLD =       0   IEPOT =       0   IEDEN =       0
 WHERE =COMASS     WHERE =NUCLEI     WHERE =NUCLEI     WHERE =NUCLEI  
 OUTPUT=BOTH       OUTPUT=BOTH       OUTPUT=BOTH       OUTPUT=BOTH    
 IEMINT=       0   IEFINT=       0                     IEDINT=       0
                                                       MORB  =       0
          EXTRAPOLATION IN EFFECT
          SOSCF IN EFFECT
 ORBITAL PRINTING OPTION: NPREO=     1    10     2     1

     -------------------------------
     INTEGRAL TRANSFORMATION OPTIONS
     -------------------------------
     NWORD  =            0
     CUTOFF = 1.0E-09     MPTRAN =       0
     DIRTRF =       F     AOINTS =DUP     

          ----------------------
          INTEGRAL INPUT OPTIONS
          ----------------------
 NOPK  =       1 NORDER=       0 SCHWRZ=       F

     ------------------------------
     CI-SINGLES CONTROL INFORMATION
     ------------------------------
     NACORE =        0  NBCORE   =        0
     NSTATE =        5  IROOT    =        1
     HAMTYP = SAPS      SAP MULT =        1
     DIAGZN = DAVID     MXVEC    =       40
     NDAVIT =       50  DAVCVG   = 1.00E-05
     CISPRP =        F  NGSVEC   =       10
     MNMEDG =        F  MNMEOP   =        F
     CHFSLV = CONJG     RDCISV   =        F
     DGAPRX =        T

     NUMBER OF CORE -A-  ORBITALS =     0
     NUMBER OF CORE -B-  ORBITALS =     0
     NUMBER OF OCC. -A-  ORBITALS =     1
     NUMBER OF OCC. -B-  ORBITALS =     1
     NUMBER OF MOLECULAR ORBITALS =    10
     NUMBER OF   BASIS  FUNCTIONS =    10


     ------------------------------------------
     THE POINT GROUP IS C1 , NAXIS= 0, ORDER= 1
     ------------------------------------------

 -- VARIATIONAL SPACE WILL BE RESTRICTED TO PURE SPHERICAL HARMONICS ONLY --
 AFTER EXCLUDING CONTAMINANT COMBINATIONS FROM THE CARTESIAN GAUSSIAN BASIS
 SET, THE NUMBER OF SPHERICAL HARMONICS KEPT IN THE VARIATION SPACE IS   10

     DIMENSIONS OF THE SYMMETRY SUBSPACES ARE
 A   =   10

 ..... DONE SETTING UP THE RUN .....
 CPU     0: STEP CPU TIME=     0.01 TOTAL CPU TIME=        0.0 (    0.0 MIN)
 TOTAL WALL CLOCK TIME=        0.0 SECONDS, CPU UTILIZATION IS  33.33%

          ********************
          1 ELECTRON INTEGRALS
          ********************
 ...... END OF ONE-ELECTRON INTEGRALS ......
 CPU     0: STEP CPU TIME=     0.00 TOTAL CPU TIME=        0.0 (    0.0 MIN)
 TOTAL WALL CLOCK TIME=        0.1 SECONDS, CPU UTILIZATION IS  10.00%

          -------------
          GUESS OPTIONS
          -------------
          GUESS =HUCKEL            NORB  =       0          NORDER=       0
          MIX   =       F          PRTMO =       F          PUNMO =       F
          TOLZ  = 1.0E-08          TOLE  = 1.0E-05
          SYMDEN=       F          PURIFY=       F

 INITIAL GUESS ORBITALS GENERATED BY HUCKEL   ROUTINE.
 HUCKEL GUESS REQUIRES      2162 WORDS.

 SYMMETRIES FOR INITIAL GUESS ORBITALS FOLLOW.   BOTH SET(S).
     1 ORBITALS ARE OCCUPIED (    0 CORE ORBITALS).
     1=A        2=A        3=A        4=A        5=A        6=A        7=A   
     8=A        9=A       10=A   
 ...... END OF INITIAL ORBITAL SELECTION ......
 CPU     0: STEP CPU TIME=     0.01 TOTAL CPU TIME=        0.0 (    0.0 MIN)
 TOTAL WALL CLOCK TIME=        0.1 SECONDS, CPU UTILIZATION IS  15.38%

                    ----------------------
                    AO INTEGRAL TECHNOLOGY
                    ----------------------
     S,P,L SHELL ROTATED AXIS INTEGRALS, REPROGRAMMED BY
        KAZUYA ISHIMURA (IMS) AND JOSE SIERRA (SYNSTAR).
     S,P,D,L SHELL ROTATED AXIS INTEGRALS PROGRAMMED BY
        KAZUYA ISHIMURA (INSTITUTE FOR MOLECULAR SCIENCE).
     S,P,D,F,G SHELL TO TOTAL QUARTET ANGULAR MOMENTUM SUM 5,
        ERIC PROGRAM BY GRAHAM FLETCHER (ELORET AND NASA ADVANCED
        SUPERCOMPUTING DIVISION, AMES RESEARCH CENTER).
     S,P,D,F,G,L SHELL GENERAL RYS QUADRATURE PROGRAMMED BY
        MICHEL DUPUIS (PACIFIC NORTHWEST NATIONAL LABORATORY).

          --------------------
          2 ELECTRON INTEGRALS
          --------------------

 THE -PK- OPTION IS OFF, THE INTEGRALS ARE NOT IN SUPERMATRIX FORM.
 STORING   15000 INTEGRALS/RECORD ON DISK, USING 12 BYTES/INTEGRAL.
 TWO ELECTRON INTEGRAL EVALUATION REQUIRES   89377 WORDS OF MEMORY.
 II,JST,KST,LST =  1  1  1  1 NREC =         1 INTLOC =    1
 II,JST,KST,LST =  2  1  1  1 NREC =         1 INTLOC =    1
 II,JST,KST,LST =  3  1  1  1 NREC =         1 INTLOC =    5
 II,JST,KST,LST =  4  1  1  1 NREC =         1 INTLOC =    5
 II,JST,KST,LST =  5  1  1  1 NREC =         1 INTLOC =   25
 II,JST,KST,LST =  6  1  1  1 NREC =         1 INTLOC =   25
 TOTAL NUMBER OF NONZERO TWO-ELECTRON INTEGRALS =                 512
         16 INTEGRAL RECORDS WERE STORED ON DISK FILE  8.
  ...... END OF TWO-ELECTRON INTEGRALS .....
 CPU     0: STEP CPU TIME=     0.01 TOTAL CPU TIME=        0.0 (    0.0 MIN)
 TOTAL WALL CLOCK TIME=        0.2 SECONDS, CPU UTILIZATION IS  15.79%

          --------------------------
                 RHF SCF CALCULATION
          --------------------------

     NUCLEAR ENERGY =         0.8333333333
     MAXIT =   30     NPUNCH=    2
     EXTRAP=T  DAMP=F  SHIFT=F  RSTRCT=F  DIIS=F  DEM=F  SOSCF=T
     DENSITY MATRIX CONV=  1.00E-06
     SOSCF WILL OPTIMIZE       9 ORBITAL ROTATIONS, SOGTOL=   0.250
     MEMORY REQUIRED FOR RHF ITERS=     30876 WORDS.

 ITER EX DEM     TOTAL ENERGY        E CHANGE  DENSITY CHANGE     ORB. GRAD
   1  0  0       -1.1113714357    -1.1113714357   0.037981997   0.000000000
          ---------------START SECOND ORDER SCF---------------
   2  1  0       -1.1168735680    -0.0055021323   0.007581972   0.012053068
   3  2  0       -1.1170359067    -0.0001623387   0.001868185   0.001993906
   4  3  0       -1.1170415115    -0.0000056048   0.000035413   0.000041156
   5  4  0       -1.1170415161    -0.0000000047   0.000005239   0.000006944
   6  5  0       -1.1170415163    -0.0000000001   0.000000000   0.000000009

          -----------------
          DENSITY CONVERGED
          -----------------
     TIME TO FORM FOCK OPERATORS=       0.0 SECONDS (       0.0 SEC/ITER)
     TIME TO SOLVE SCF EQUATIONS=       0.0 SECONDS (       0.0 SEC/ITER)

 FINAL RHF ENERGY IS       -1.1170415163 AFTER   6 ITERATIONS

 LZ VALUE ANALYSIS FOR THE MOS
 ----------------------------------------
 MO     1 (    1) HAS LZ(WEIGHT)= 0.00(100.0%) 
 MO     2 (    2) HAS LZ(WEIGHT)= 0.00(100.0%) 
 MO     3 (    3) HAS LZ(WEIGHT)= 0.00(100.0%) 
 MO     4 (    4) HAS LZ(WEIGHT)= 0.00(100.0%) 
 MO     5 (    5) HAS LZ(WEIGHT)= 0.00(100.0%) 
 MO     6 (    5) HAS LZ(WEIGHT)= 0.00(100.0%) 
 MO     7 (    6) HAS LZ(WEIGHT)= 0.00(100.0%) 
 MO     8 (    7) HAS LZ(WEIGHT)= 0.00(100.0%) 
 MO     9 (    7) HAS LZ(WEIGHT)= 0.00(100.0%) 
 MO    10 (    8) HAS LZ(WEIGHT)= 0.00(100.0%) 

          ------------
          EIGENVECTORS
          ------------

                      1          2          3          4          5
                   -0.6264     0.2166     0.4539     1.0236     1.3076
                     A          A          A          A          A   
    1  H  1  S    0.416089   0.129987  -0.667049   0.623091   0.000000
    2  H  1  S    0.148405   2.320583   0.722997  -1.694875   0.000000
    3  H  1  X    0.024711   0.015894   0.008107  -0.483642   0.000000
    4  H  1  Y    0.000000   0.000000   0.000000   0.000000   0.401015
    5  H  1  Z    0.000000   0.000000   0.000000   0.000000   0.391361
    6  H  2  S    0.416089  -0.129987  -0.667049  -0.623091   0.000000
    7  H  2  S    0.148405  -2.320583   0.722997   1.694875   0.000000
    8  H  2  X   -0.024711   0.015894  -0.008107  -0.483642   0.000000
    9  H  2  Y    0.000000   0.000000   0.000000   0.000000   0.401015
   10  H  2  Z    0.000000   0.000000   0.000000   0.000000   0.391361

                      6          7          8          9         10
                    1.3076     2.0507     2.1146     2.1146     4.4443
                     A          A          A          A          A   
    1  H  1  S    0.000000   0.461550   0.000000   0.000000  -3.897924
    2  H  1  S    0.000000  -0.229621   0.000000   0.000000   0.195388
    3  H  1  X    0.000000  -0.809212   0.000000   0.000000  -2.281292
    4  H  1  Y   -0.391361   0.000000   1.021843  -0.427513   0.000000
    5  H  1  Z    0.401015   0.000000   0.427513   1.021843   0.000000
    6  H  2  S    0.000000   0.461550   0.000000   0.000000   3.897924
    7  H  2  S    0.000000  -0.229621   0.000000   0.000000  -0.195388
    8  H  2  X    0.000000   0.809212   0.000000   0.000000  -2.281292
    9  H  2  Y   -0.391361   0.000000  -1.021843   0.427513   0.000000
   10  H  2  Z    0.401015   0.000000  -0.427513  -1.021843   0.000000
 ...... END OF RHF CALCULATION ......
 CPU     0: STEP CPU TIME=     0.00 TOTAL CPU TIME=        0.0 (    0.0 MIN)
 TOTAL WALL CLOCK TIME=        0.7 SECONDS, CPU UTILIZATION IS   4.35%

     ----------------------------------------------------------------
     PROPERTY VALUES FOR THE RHF   SELF-CONSISTENT FIELD WAVEFUNCTION
     ----------------------------------------------------------------

          -----------------
          ENERGY COMPONENTS
          -----------------

         WAVEFUNCTION NORMALIZATION =       1.0000000000

                ONE ELECTRON ENERGY =      -2.6479647323
                TWO ELECTRON ENERGY =       0.6975898827
           NUCLEAR REPULSION ENERGY =       0.8333333333
                                      ------------------
                       TOTAL ENERGY =      -1.1170415163

 ELECTRON-ELECTRON POTENTIAL ENERGY =       0.6975898827
  NUCLEUS-ELECTRON POTENTIAL ENERGY =      -3.8493455892
   NUCLEUS-NUCLEUS POTENTIAL ENERGY =       0.8333333333
                                      ------------------
             TOTAL POTENTIAL ENERGY =      -2.3184223731
               TOTAL KINETIC ENERGY =       1.2013808569
                 VIRIAL RATIO (V/T) =       1.9297979986

  ...... PI ENERGY ANALYSIS ......

 ENERGY ANALYSIS:
            FOCK ENERGY=     -1.2527849677
          BARE H ENERGY=     -2.6479647323
     ELECTRONIC ENERGY =     -1.9503748500
         KINETIC ENERGY=      1.2013808569
          N-N REPULSION=      0.8333333333
           TOTAL ENERGY=     -1.1170415167
        SIGMA PART(1+2)=     -1.9503748500
               (K,V1,2)=      1.2013808569     -3.8493455892      0.6975898823
           PI PART(1+2)=      0.0000000000
               (K,V1,2)=      0.0000000000      0.0000000000      0.0000000000
  SIGMA SKELETON, ERROR=     -1.1170415167      0.0000000000
             MIXED PART= 0.00000E+00 0.00000E+00 0.00000E+00 0.00000E+00
 ...... END OF PI ENERGY ANALYSIS ......

          ---------------------------------------
          MULLIKEN AND LOWDIN POPULATION ANALYSES
          ---------------------------------------

               ----- POPULATIONS IN EACH AO -----
                             MULLIKEN      LOWDIN
              1  H  1  S      0.74282     0.62994
              2  H  1  S      0.24352     0.33515
              3  H  1  X      0.01366     0.03492
              4  H  1  Y      0.00000     0.00000
              5  H  1  Z      0.00000     0.00000
              6  H  2  S      0.74282     0.62994
              7  H  2  S      0.24352     0.33515
              8  H  2  X      0.01366     0.03492
              9  H  2  Y      0.00000     0.00000
             10  H  2  Z      0.00000     0.00000

          ----- MULLIKEN ATOMIC OVERLAP POPULATIONS -----
          (OFF-DIAGONAL ELEMENTS NEED TO BE MULTIPLIED BY 2)

             1           2

    1    0.5606894
    2    0.4393106   0.5606894

          TOTAL MULLIKEN AND LOWDIN ATOMIC POPULATIONS
       ATOM         MULL.POP.    CHARGE          LOW.POP.     CHARGE
    1 H             1.000000    0.000000         1.000000   -0.000000
    2 H             1.000000    0.000000         1.000000   -0.000000

          MULLIKEN SPHERICAL HARMONIC POPULATIONS
       ATOM           S       P       D      F      G      H      I    TOTAL
    1 H             0.99    0.01    0.00   0.00   0.00   0.00   0.00    1.00
    2 H             0.99    0.01    0.00   0.00   0.00   0.00   0.00    1.00

          ---------------------
          ELECTROSTATIC MOMENTS
          ---------------------

 POINT   1           X           Y           Z (BOHR)    CHARGE
                 0.600000    0.000000    0.000000        0.00 (A.U.)
         DX          DY          DZ         /D/  (DEBYE)
     0.000000    0.000000    0.000000    0.000000
 ...... END OF PROPERTY EVALUATION ......
 CPU     0: STEP CPU TIME=     0.01 TOTAL CPU TIME=        0.0 (    0.0 MIN)
 TOTAL WALL CLOCK TIME=        0.8 SECONDS, CPU UTILIZATION IS   4.94%

 MXVEC CANNOT BE BIGGER THAN THE NUMBER OF CIS CONFIGS
 SETTING MXVEC = NCFG


          ---------------------------------------------
             ATOMIC ORBITAL BASIS CI-SINGLES ENERGY
             PROGRAM WRITTEN BY SIMON P. WEBB
          ---------------------------------------------

 # CORE ORBITALS      =    0
 # OCCUPIED ORBITALS  =    1
 # MOLECULAR ORBITALS =   10
 # BASIS FUNCTIONS    =   10

 NUMBER OF CIS SPIN-ADAPTED ANTISYMMETRIZED PRODUCTS (SAPS) IS       9

 APPROXIMATING CIS HAMILTONIAN DIAGONAL ELEMENTS USING ONLY ORBITAL ENERGIES

 -CIS- HAM. DIAGONAL ELEMENTS  TOOK      0.000 SECONDS

 MIN MEMORY REQ. FOR CIS ENERGY FOCK-LIKE BUILDS =       200 WORDS
 MEMORY REQ. FOR SINGLE BATCH BUILDS             =      1800 WORDS
 MEMORY AVAILABLE                                =    968641 WORDS

 SINGLE BATCH ENERGY CALCULATION WILL BE PERFORMED

 UNIT VECTOR GUESS AT CIS COEFFICIENTS ...

 USING IN MEMORY DIAGONALIZTION TO FIND CIS EIGENVALUES AND EIGENVECTORS ...

 STATE    1 ENERGY=       -0.5601967557
 STATE    2 ENERGY=       -0.3249320008
 STATE    3 ENERGY=        0.1696579069
 STATE    4 ENERGY=        0.4021788490
 STATE    5 ENERGY=        0.4021788490


        --------------------------------------------------------
        RESULTS FROM SPIN-ADAPTED ANTISYMMETRIZED PRODUCT (SAPS)
        BASED ATOMIC ORBITAL CI-SINGLES ENERGY CALCULATION
        --------------------------------------------------------

 PRINTING CIS COEFFICIENTS LARGER THAN  0.050000

 RHF REFERENCE ENERGY  =        -1.1170415163


 EXCITED STATE   1  ENERGY=        -0.5601967557  S = 0.0  SPACE SYM = A   

          ----------------------------------------------
          SINGLE EXCITATION               SAP COEFFICENT
          FROM MO     TO MO
          ----------------------------------------------
             1          2                   0.99991719
          ----------------------------------------------


 EXCITED STATE   2  ENERGY=        -0.3249320008  S = 0.0  SPACE SYM = A   

          ----------------------------------------------
          SINGLE EXCITATION               SAP COEFFICENT
          FROM MO     TO MO
          ----------------------------------------------
             1          3                   0.99999699
          ----------------------------------------------


 EXCITED STATE   3  ENERGY=         0.1696579069  S = 0.0  SPACE SYM = A   

          ----------------------------------------------
          SINGLE EXCITATION               SAP COEFFICENT
          FROM MO     TO MO
          ----------------------------------------------
             1          4                  -0.99990730
          ----------------------------------------------


 EXCITED STATE   4  ENERGY=         0.4021788490  S = 0.0  SPACE SYM = A   

          ----------------------------------------------
          SINGLE EXCITATION               SAP COEFFICENT
          FROM MO     TO MO
          ----------------------------------------------
             1          5                   0.99556368
             1          6                  -0.09409014
          ----------------------------------------------


 EXCITED STATE   5  ENERGY=         0.4021788490  S = 0.0  SPACE SYM = A   

          ----------------------------------------------
          SINGLE EXCITATION               SAP COEFFICENT
          FROM MO     TO MO
          ----------------------------------------------
             1          5                   0.09409014
             1          6                   0.99556368
          ----------------------------------------------

  ---------------------------------------------------------------------
                    CI-SINGLES EXCITATION ENERGIES
  STATE       HARTREE        EV      KCAL/MOL       CM-1         NM
  ---------------------------------------------------------------------
   1A     0.5568447606    15.1525    349.4254     122213.30      81.82
   1A     0.7921095155    21.5544    497.0563     173847.94      57.52
   1A     1.2866994232    35.0129    807.4162     282397.88      35.41
   1A     1.5192203653    41.3401    953.3253     333430.33      29.99
   1A     1.5192203653    41.3401    953.3253     333430.33      29.99

 -CIS- ENERGY                  TOOK      0.000 SECONDS

  ---------------------------------------------------------------------
                    CIS TRANSITION DIPOLE MOMENTS AND
                    EXPECTATION VALUES OF DIPOLE MOMENTS
  ---------------------------------------------------------------------

 GROUND STATE (SCF) DIPOLE=     0.000000     0.000000     0.000000 DEBYE

 TRANSITION FROM THE GROUND STATE TO EXCITED STATE  1

 STATE MULTIPLICITIES =   1  1
 STATE ENERGIES =         -1.1170415163       -0.5601967557
 EXCITATION ENERGY =  3.6639E+15 [1/SEC] =   122213.30 [1/CM] =     15.15 [EV]
                            X           Y           Z           NORM
 TRANSITION DIPOLE =   -1.199032    0.000000   -0.000000    1.199032 E*BOHR
 TRANSITION DIPOLE =   -3.047658    0.000000   -0.000000    3.047658 DEBYE
 OSCILLATOR STRENGTH =    0.533709
 EINSTEIN COEFFICIENTS: A=  5.3173E+09 1/SEC; B=  5.8347E+08 SEC/G

 TRANSITION FROM THE GROUND STATE TO EXCITED STATE  2

 STATE MULTIPLICITIES =   1  1
 STATE ENERGIES =         -1.1170415163       -0.3249320008
 EXCITATION ENERGY =  5.2118E+15 [1/SEC] =   173847.94 [1/CM] =     21.55 [EV]
                            X           Y           Z           NORM
 TRANSITION DIPOLE =    0.000000    0.000000   -0.000000    0.000000 E*BOHR
 TRANSITION DIPOLE =    0.000000    0.000000   -0.000000    0.000000 DEBYE
 OSCILLATOR STRENGTH =    0.000000
 EINSTEIN COEFFICIENTS: A=  3.0628E-20 1/SEC; B=  1.1676E-21 SEC/G

 TRANSITION FROM THE GROUND STATE TO EXCITED STATE  3

 STATE MULTIPLICITIES =   1  1
 STATE ENERGIES =         -1.1170415163        0.1696579069
 EXCITATION ENERGY =  8.4661E+15 [1/SEC] =   282397.88 [1/CM] =     35.01 [EV]
                            X           Y           Z           NORM
 TRANSITION DIPOLE =    0.551291    0.000000    0.000000    0.551291 E*BOHR
 TRANSITION DIPOLE =    1.401252    0.000000    0.000000    1.401252 DEBYE
 OSCILLATOR STRENGTH =    0.260704
 EINSTEIN COEFFICIENTS: A=  1.3868E+10 1/SEC; B=  1.2334E+08 SEC/G

 TRANSITION FROM THE GROUND STATE TO EXCITED STATE  4

 STATE MULTIPLICITIES =   1  1
 STATE ENERGIES =         -1.1170415163        0.4021788490
 EXCITATION ENERGY =  9.9960E+15 [1/SEC] =   333430.33 [1/CM] =     41.34 [EV]
                            X           Y           Z           NORM
 TRANSITION DIPOLE =    0.000000    0.744962    0.601173    0.957276 E*BOHR
 TRANSITION DIPOLE =    0.000000    1.893519    1.528041    2.433171 DEBYE
 OSCILLATOR STRENGTH =    0.928119
 EINSTEIN COEFFICIENTS: A=  6.8828E+10 1/SEC; B=  3.7190E+08 SEC/G

 TRANSITION FROM THE GROUND STATE TO EXCITED STATE  5

 STATE MULTIPLICITIES =   1  1
 STATE ENERGIES =         -1.1170415163        0.4021788490
 EXCITATION ENERGY =  9.9960E+15 [1/SEC] =   333430.33 [1/CM] =     41.34 [EV]
                            X           Y           Z           NORM
 TRANSITION DIPOLE =    0.000000   -0.601173    0.744962    0.957276 E*BOHR
 TRANSITION DIPOLE =    0.000000   -1.528041    1.893519    2.433171 DEBYE
 OSCILLATOR STRENGTH =    0.928119
 EINSTEIN COEFFICIENTS: A=  6.8828E+10 1/SEC; B=  3.7190E+08 SEC/G

 EXPECTATION VALUE DIPOLE MOMENT FOR EXCITED STATE  1

 STATE MULTIPLICITY =   1
 STATE ENERGY =         -0.5601967557
                            X           Y           Z           NORM
      STATE DIPOLE =    0.000000   -0.000000   -0.000000    0.000000 E*BOHR
      STATE DIPOLE =    0.000000   -0.000000   -0.000000    0.000000 DEBYE

 TRANSITION BETWEEN EXCITED STATES   1 AND  2

 STATE MULTIPLICITIES=  1  1
 STATE ENERGIES =         -0.5601967557       -0.3249320008
 TRANSITION ENERGY =  1.5480E+15 [1/SEC] =    51634.65 [1/CM] =        6.40 [EV]
                            X           Y           Z           NORM
 TRANSITION DIPOLE =   -1.402878   -0.000000   -0.000000    1.402878 E*BOHR
 TRANSITION DIPOLE =   -3.565788   -0.000000   -0.000000    3.565788 DEBYE
 OSCILLATOR STRENGTH =    0.308678
 EINSTEIN COEFFICIENTS: A=  5.4896E+08 1/SEC; B=  7.9872E+08 SEC/G

 TRANSITION BETWEEN EXCITED STATES   1 AND  3

 STATE MULTIPLICITIES=  1  1
 STATE ENERGIES =         -0.5601967557        0.1696579069
 TRANSITION ENERGY =  4.8022E+15 [1/SEC] =   160184.58 [1/CM] =       19.86 [EV]
                            X           Y           Z           NORM
 TRANSITION DIPOLE =    0.000000    0.000000   -0.000000    0.000000 E*BOHR
 TRANSITION DIPOLE =    0.000000    0.000000   -0.000000    0.000000 DEBYE
 OSCILLATOR STRENGTH =    0.000000
 EINSTEIN COEFFICIENTS: A=  7.6127E-20 1/SEC; B=  3.7099E-21 SEC/G

 TRANSITION BETWEEN EXCITED STATES   1 AND  4

 STATE MULTIPLICITIES=  1  1
 STATE ENERGIES =         -0.5601967557        0.4021788490
 TRANSITION ENERGY =  6.3321E+15 [1/SEC] =   211217.03 [1/CM] =       26.19 [EV]
                            X           Y           Z           NORM
 TRANSITION DIPOLE =   -0.000000    0.000000   -0.000000    0.000000 E*BOHR
 TRANSITION DIPOLE =   -0.000000    0.000000   -0.000000    0.000000 DEBYE
 OSCILLATOR STRENGTH =    0.000000
 EINSTEIN COEFFICIENTS: A=  2.8831E-21 1/SEC; B=  6.1284E-23 SEC/G

 TRANSITION BETWEEN EXCITED STATES   1 AND  5

 STATE MULTIPLICITIES=  1  1
 STATE ENERGIES =         -0.5601967557        0.4021788490
 TRANSITION ENERGY =  6.3321E+15 [1/SEC] =   211217.03 [1/CM] =       26.19 [EV]
                            X           Y           Z           NORM
 TRANSITION DIPOLE =    0.000000    0.000000    0.000000    0.000000 E*BOHR
 TRANSITION DIPOLE =    0.000000    0.000000    0.000000    0.000000 DEBYE
 OSCILLATOR STRENGTH =    0.000000
 EINSTEIN COEFFICIENTS: A=  1.2558E-21 1/SEC; B=  2.6694E-23 SEC/G

 EXPECTATION VALUE DIPOLE MOMENT FOR EXCITED STATE  2

 STATE MULTIPLICITY =   1
 STATE ENERGY =         -0.3249320008
                            X           Y           Z           NORM
      STATE DIPOLE =    0.000000   -0.000000    0.000000    0.000000 E*BOHR
      STATE DIPOLE =    0.000000   -0.000000    0.000000    0.000000 DEBYE

 TRANSITION BETWEEN EXCITED STATES   2 AND  3

 STATE MULTIPLICITIES=  1  1
 STATE ENERGIES =         -0.3249320008        0.1696579069
 TRANSITION ENERGY =  3.2542E+15 [1/SEC] =   108549.94 [1/CM] =       13.46 [EV]
                            X           Y           Z           NORM
 TRANSITION DIPOLE =   -0.921919    0.000000    0.000000    0.921919 E*BOHR
 TRANSITION DIPOLE =   -2.343304    0.000000    0.000000    2.343304 DEBYE
 OSCILLATOR STRENGTH =    0.280246
 EINSTEIN COEFFICIENTS: A=  2.2027E+09 1/SEC; B=  3.4494E+08 SEC/G

 TRANSITION BETWEEN EXCITED STATES   2 AND  4

 STATE MULTIPLICITIES=  1  1
 STATE ENERGIES =         -0.3249320008        0.4021788490
 TRANSITION ENERGY =  4.7842E+15 [1/SEC] =   159582.39 [1/CM] =       19.79 [EV]
                            X           Y           Z           NORM
 TRANSITION DIPOLE =    0.000000    0.090495    0.073028    0.116286 E*BOHR
 TRANSITION DIPOLE =    0.000000    0.230016    0.185620    0.295571 DEBYE
 OSCILLATOR STRENGTH =    0.006555
 EINSTEIN COEFFICIENTS: A=  1.1135E+08 1/SEC; B=  5.4879E+06 SEC/G

 TRANSITION BETWEEN EXCITED STATES   2 AND  5

 STATE MULTIPLICITIES=  1  1
 STATE ENERGIES =         -0.3249320008        0.4021788490
 TRANSITION ENERGY =  4.7842E+15 [1/SEC] =   159582.39 [1/CM] =       19.79 [EV]
                            X           Y           Z           NORM
 TRANSITION DIPOLE =    0.000000   -0.073028    0.090495    0.116286 E*BOHR
 TRANSITION DIPOLE =    0.000000   -0.185620    0.230016    0.295571 DEBYE
 OSCILLATOR STRENGTH =    0.006555
 EINSTEIN COEFFICIENTS: A=  1.1135E+08 1/SEC; B=  5.4879E+06 SEC/G

 EXPECTATION VALUE DIPOLE MOMENT FOR EXCITED STATE  3

 STATE MULTIPLICITY =   1
 STATE ENERGY =          0.1696579069
                            X           Y           Z           NORM
      STATE DIPOLE =   -0.000000    0.000000   -0.000000    0.000000 E*BOHR
      STATE DIPOLE =   -0.000000    0.000000   -0.000000    0.000000 DEBYE

 TRANSITION BETWEEN EXCITED STATES   3 AND  4

 STATE MULTIPLICITIES=  1  1
 STATE ENERGIES =          0.1696579069        0.4021788490
 TRANSITION ENERGY =  1.5299E+15 [1/SEC] =    51032.45 [1/CM] =        6.33 [EV]
                            X           Y           Z           NORM
 TRANSITION DIPOLE =    0.000000   -0.000000    0.000000    0.000000 E*BOHR
 TRANSITION DIPOLE =    0.000000   -0.000000    0.000000    0.000000 DEBYE
 OSCILLATOR STRENGTH =    0.000000
 EINSTEIN COEFFICIENTS: A=  5.4963E-23 1/SEC; B=  8.2835E-23 SEC/G

 TRANSITION BETWEEN EXCITED STATES   3 AND  5

 STATE MULTIPLICITIES=  1  1
 STATE ENERGIES =          0.1696579069        0.4021788490
 TRANSITION ENERGY =  1.5299E+15 [1/SEC] =    51032.45 [1/CM] =        6.33 [EV]
                            X           Y           Z           NORM
 TRANSITION DIPOLE =    0.000000   -0.000000    0.000000    0.000000 E*BOHR
 TRANSITION DIPOLE =    0.000000   -0.000000    0.000000    0.000000 DEBYE
 OSCILLATOR STRENGTH =    0.000000
 EINSTEIN COEFFICIENTS: A=  1.0624E-22 1/SEC; B=  1.6012E-22 SEC/G

 EXPECTATION VALUE DIPOLE MOMENT FOR EXCITED STATE  4

 STATE MULTIPLICITY =   1
 STATE ENERGY =          0.4021788490
                            X           Y           Z           NORM
      STATE DIPOLE =    0.000000    0.000000    0.000000    0.000000 E*BOHR
      STATE DIPOLE =    0.000000    0.000000    0.000000    0.000000 DEBYE

 TRANSITION BETWEEN EXCITED STATES   4 AND  5

 STATE MULTIPLICITIES=  1  1
 STATE ENERGIES =          0.4021788490        0.4021788490
 TRANSITION ENERGY =  1.3149E+01 [1/SEC] =        0.00 [1/CM] =        0.00 [EV]
                            X           Y           Z           NORM
 TRANSITION DIPOLE =    0.000000   -0.000000   -0.000000    0.000000 E*BOHR
 TRANSITION DIPOLE =    0.000000   -0.000000   -0.000000    0.000000 DEBYE
 OSCILLATOR STRENGTH =    0.000000
 EINSTEIN COEFFICIENTS: A=  5.5486E-65 1/SEC; B=  1.3172E-22 SEC/G

 EXPECTATION VALUE DIPOLE MOMENT FOR EXCITED STATE  5

 STATE MULTIPLICITY =   1
 STATE ENERGY =          0.4021788490
                            X           Y           Z           NORM
      STATE DIPOLE =   -0.000000   -0.000000    0.000000    0.000000 E*BOHR
      STATE DIPOLE =   -0.000000   -0.000000    0.000000    0.000000 DEBYE

 CIS NATURAL ORBITAL OCCUPATION NUMBERS FOR EXCITED STATE    1 ARE
  1.0000 1.0000 0.0000 0.0000 0.0000 0.0000 0.0000 0.0000-0.0000-0.0000
 THERE ARE     1.0000 ELECTRONS IN PRINCIPAL CIS NATURAL ORBITALS.
 THERE ARE     1.0000 ELECTRONS IN SECONDARY CIS NATURAL ORBITALS.

          --------------------
          CIS NATURAL ORBITALS
          --------------------

                      1          2          3          4          5

                    1.0000     1.0000     0.0000     0.0000     0.0000

    1  H  1  S    0.123935  -0.416089   0.800484   0.043674   3.936320
    2  H  1  S    2.300105  -0.148405  -0.751648  -1.006673  -0.331330
    3  H  1  X    0.001858  -0.024711  -0.354093   0.209056   2.234992
    4  H  1  Y   -0.000000  -0.000000   0.000000   0.044005   0.000170
    5  H  1  Z    0.000000   0.000000   0.000000  -0.136646  -0.000528
    6  H  2  S   -0.123935  -0.416089   0.800484  -0.253291  -3.937130
    7  H  2  S   -2.300105  -0.148405  -0.751648   0.843115   0.330698
    8  H  2  X    0.001858   0.024711   0.354093  -0.953746   2.230496
    9  H  2  Y   -0.000000  -0.000000   0.000000   0.044005   0.000170
   10  H  2  Z    0.000000   0.000000   0.000000  -0.136646  -0.000528

                      6          7          8          9         10

                    0.0000     0.0000     0.0000    -0.0000    -0.0000

    1  H  1  S    0.000000   0.000000  -0.040054  -0.000000  -0.320432
    2  H  1  S    0.000000   0.000000  -0.031253   0.000000   1.375402
    3  H  1  X    0.000000   0.000000   0.222188  -0.000000   0.937923
    4  H  1  Y   -0.533361   0.941530  -0.163558   0.583483   0.028532
    5  H  1  Z   -0.171760  -0.583483   0.507890   0.941530  -0.088600
    6  H  2  S    0.000000   0.000000  -0.040054   0.000000   0.184519
    7  H  2  S    0.000000   0.000000  -0.031253  -0.000000  -1.481451
    8  H  2  X    0.000000   0.000000  -0.222188  -0.000000   0.183977
    9  H  2  Y   -0.533361  -0.941530  -0.163558  -0.583483   0.028532
   10  H  2  Z   -0.171760   0.583483   0.507890  -0.941530  -0.088600

 THE CIS NATURAL ORBITALS HAVE BEEN PUNCHED.

 ..... DONE WITH CIS ENERGY .....

 CPU     0: STEP CPU TIME=     0.00 TOTAL CPU TIME=        0.0 (    0.0 MIN)
 TOTAL WALL CLOCK TIME=        1.1 SECONDS, CPU UTILIZATION IS   3.81%

     -------------------------------------------------------------
     CIS   PROPERTIES...FOR THE WAVEFUNCTION OF EXCITED STATE    1
                 USING THE EXPECTATION VALUE DENSITY
     -------------------------------------------------------------

          -----------------
          ENERGY COMPONENTS
          -----------------

         WAVEFUNCTION NORMALIZATION =       1.0000000000

                ONE ELECTRON ENERGY =      -1.8228525067
                TWO ELECTRON ENERGY =       0.4293224177
           NUCLEAR REPULSION ENERGY =       0.8333333333
                                      ------------------
                       TOTAL ENERGY =      -0.5601967557

 ELECTRON-ELECTRON POTENTIAL ENERGY =       0.4293224177
  NUCLEUS-ELECTRON POTENTIAL ENERGY =      -2.7559029664
   NUCLEUS-NUCLEUS POTENTIAL ENERGY =       0.8333333333
                                      ------------------
             TOTAL POTENTIAL ENERGY =      -1.4932472154
               TOTAL KINETIC ENERGY =       0.9330504597
                 VIRIAL RATIO (V/T) =       1.6003927760

          ---------------------------------------
          MULLIKEN AND LOWDIN POPULATION ANALYSES
          ---------------------------------------

               ----- POPULATIONS IN EACH AO -----
                             MULLIKEN      LOWDIN
              1  H  1  S      0.40224     0.35873
              2  H  1  S      0.59169     0.53978
              3  H  1  X      0.00607     0.10149
              4  H  1  Y      0.00000     0.00000
              5  H  1  Z      0.00000     0.00000
              6  H  2  S      0.40224     0.35873
              7  H  2  S      0.59169     0.53978
              8  H  2  X      0.00607     0.10149
              9  H  2  Y      0.00000     0.00000
             10  H  2  Z      0.00000     0.00000

          ----- MULLIKEN ATOMIC OVERLAP POPULATIONS -----
          (OFF-DIAGONAL ELEMENTS NEED TO BE MULTIPLIED BY 2)

             1           2

    1    5.9766456
    2   -4.9766456   5.9766456

          TOTAL MULLIKEN AND LOWDIN ATOMIC POPULATIONS
       ATOM         MULL.POP.    CHARGE          LOW.POP.     CHARGE
    1 H             1.000000   -0.000000         1.000000   -0.000000
    2 H             1.000000    0.000000         1.000000   -0.000000

          MULLIKEN SPHERICAL HARMONIC POPULATIONS
       ATOM           S       P       D      F      G      H      I    TOTAL
    1 H             0.99    0.01    0.00   0.00   0.00   0.00   0.00    1.00
    2 H             0.99    0.01    0.00   0.00   0.00   0.00   0.00    1.00

          ---------------------
          ELECTROSTATIC MOMENTS
          ---------------------

 POINT   1           X           Y           Z (BOHR)    CHARGE
                 0.600000    0.000000    0.000000        0.00 (A.U.)
         DX          DY          DZ         /D/  (DEBYE)
     0.000000   -0.000000   -0.000000    0.000000
 ...... END OF PROPERTY EVALUATION ......
 CPU     0: STEP CPU TIME=     0.01 TOTAL CPU TIME=        0.0 (    0.0 MIN)
 TOTAL WALL CLOCK TIME=        1.1 SECONDS, CPU UTILIZATION IS   4.63%
                580000  WORDS OF DYNAMIC MEMORY USED
 EXECUTION OF GAMESS TERMINATED NORMALLY Mon Apr 17 23:10:15 2017
 DDI: 263640 bytes (0.3 MB / 0 MWords) used by master data server.

 ----------------------------------------
 CPU timing information for all processes
 ========================================
 0: 0.20 + 0.37 = 0.58
 1: 0.10 + 0.17 = 0.28
 2: 0.12 + 0.19 = 0.31
 3: 0.08 + 0.15 = 0.24
 4: 0.08 + 0.26 = 0.34
 5: 0.13 + 0.13 = 0.27
 6: 0.07 + 0.24 = 0.32
 7: 0.06 + 0.16 = 0.22
 8: 0.06 + 0.28 = 0.34
 9: 0.06 + 0.14 = 0.21
 10: 0.09 + 0.19 = 0.28
 11: 0.06 + 0.18 = 0.24
 12: 0.10 + 0.22 = 0.32
 13: 0.11 + 0.11 = 0.23
 14: 0.12 + 0.14 = 0.27
 15: 0.06 + 0.15 = 0.22
 ----------------------------------------
 ddikick.x: exited gracefully.
----- accounting info -----
Files used on the master node kylin.physics.illinois.edu were:
-rw-rw-r--. 1 yyang173 yyang173     331 Apr 17 23:10 /scr/yyang173/sep1.20-cis.F05
-rw-rw-r--. 1 yyang173 yyang173  180016 Apr 17 23:10 /scr/yyang173/sep1.20-cis.F08
-rw-rw-r--. 1 yyang173 yyang173  180016 Apr 17 23:10 /scr/yyang173/sep1.20-cis.F08.001
-rw-rw-r--. 1 yyang173 yyang173  180016 Apr 17 23:10 /scr/yyang173/sep1.20-cis.F08.002
-rw-rw-r--. 1 yyang173 yyang173  180016 Apr 17 23:10 /scr/yyang173/sep1.20-cis.F08.003
-rw-rw-r--. 1 yyang173 yyang173  180016 Apr 17 23:10 /scr/yyang173/sep1.20-cis.F08.004
-rw-rw-r--. 1 yyang173 yyang173  180016 Apr 17 23:10 /scr/yyang173/sep1.20-cis.F08.005
-rw-rw-r--. 1 yyang173 yyang173  180016 Apr 17 23:10 /scr/yyang173/sep1.20-cis.F08.006
-rw-rw-r--. 1 yyang173 yyang173  180016 Apr 17 23:10 /scr/yyang173/sep1.20-cis.F08.007
-rw-rw-r--. 1 yyang173 yyang173  180016 Apr 17 23:10 /scr/yyang173/sep1.20-cis.F08.008
-rw-rw-r--. 1 yyang173 yyang173  180016 Apr 17 23:10 /scr/yyang173/sep1.20-cis.F08.009
-rw-rw-r--. 1 yyang173 yyang173  180016 Apr 17 23:10 /scr/yyang173/sep1.20-cis.F08.010
-rw-rw-r--. 1 yyang173 yyang173  180016 Apr 17 23:10 /scr/yyang173/sep1.20-cis.F08.011
-rw-rw-r--. 1 yyang173 yyang173  180016 Apr 17 23:10 /scr/yyang173/sep1.20-cis.F08.012
-rw-rw-r--. 1 yyang173 yyang173  180016 Apr 17 23:10 /scr/yyang173/sep1.20-cis.F08.013
-rw-rw-r--. 1 yyang173 yyang173  180016 Apr 17 23:10 /scr/yyang173/sep1.20-cis.F08.014
-rw-rw-r--. 1 yyang173 yyang173  180016 Apr 17 23:10 /scr/yyang173/sep1.20-cis.F08.015
-rw-rw-r--. 1 yyang173 yyang173 1636000 Apr 17 23:10 /scr/yyang173/sep1.20-cis.F10
-rw-rw-r--. 1 yyang173 yyang173     400 Apr 17 23:10 /scr/yyang173/sep1.20-cis.F12
Mon Apr 17 23:10:18 CDT 2017
0.174u 0.055s 0:04.43 4.9%	0+0k 0+16io 0pf+0w
