----- GAMESS execution script 'rungms' -----
This job is running on host kylin.physics.illinois.edu
under operating system Linux at Mon Apr 17 23:11:25 CDT 2017
Available scratch disk space (Kbyte units) at beginning of the job is
Filesystem                    1K-blocks     Used Available Use% Mounted on
/dev/mapper/fedora_kylin-root 110123880 60566544  44515220  58% /
GAMESS temporary binary files will be written to /scr/yyang173
GAMESS supplementary output files will be written to /home/yyang173/Desktop/attempts/drag-node/hf_grid/ccd_cis/sep2.70
Copying input file sep2.70-cis.inp to your run's scratch directory...
 
Assuming a single but multicore node.
 

 Distributed Data Interface kickoff program.
 Initiating 16 compute processes on 1 nodes to run the following command:
 /opt/intel17/apps/gamess_2016R1/gamess.00.x sep2.70-cis 

          ******************************************************
          *         GAMESS VERSION = 18 AUG 2016 (R1)          *
          *             FROM IOWA STATE UNIVERSITY             *
          * M.W.SCHMIDT, K.K.BALDRIDGE, J.A.BOATZ, S.T.ELBERT, *
          *   M.S.GORDON, J.H.JENSEN, S.KOSEKI, N.MATSUNAGA,   *
          *          K.A.NGUYEN, S.J.SU, T.L.WINDUS,           *
          *       TOGETHER WITH M.DUPUIS, J.A.MONTGOMERY       *
          *         J.COMPUT.CHEM.  14, 1347-1363(1993)        *
          **************** 64 BIT INTEL VERSION ****************

  SINCE 1993, STUDENTS AND POSTDOCS WORKING AT IOWA STATE UNIVERSITY
  AND ALSO IN THEIR VARIOUS JOBS AFTER LEAVING ISU HAVE MADE IMPORTANT
  CONTRIBUTIONS TO THE CODE:
     IVANA ADAMOVIC, CHRISTINE AIKENS, YURI ALEXEEV, POOJA ARORA,
     ANDREY ASADCHEV, ROB BELL, PRADIPTA BANDYOPADHYAY, JONATHAN BENTZ,
     BRETT BODE, KURT BRORSEN, CALEB CARLIN, GALINA CHABAN, WEI CHEN,
     CHEOL HO CHOI, PAUL DAY, ALBERT DEFUSCO, NUWAN DESILVA, TIM DUDLEY,
     DMITRI FEDOROV, GRAHAM FLETCHER, MARK FREITAG, KURT GLAESEMANN,
     DAN KEMP, GRANT MERRILL, NORIYUKI MINEZAWA, JONATHAN MULLIN,
     TAKESHI NAGATA, SEAN NEDD, HEATHER NETZLOFF, BOSILJKA NJEGIC, RYAN OLSON,
     MIKE PAK, SPENCER PRUITT, LUKE ROSKOP, JIM SHOEMAKER, LYUDMILA SLIPCHENKO,
     TONY SMITH, SAROM SOK LEANG, JIE SONG, TETSUYA TAKETSUGU, SIMON WEBB,
     PENG XU, SOOHAENG YOO, FEDERICO ZAHARIEV

  ADDITIONAL CODE HAS BEEN PROVIDED BY COLLABORATORS IN OTHER GROUPS:
     IOWA STATE UNIVERSITY:
          JOE IVANIC, AARON WEST, LAIMUTIS BYTAUTAS, KLAUS RUEDENBERG
     UNIVERSITY OF TOKYO: KIMIHIKO HIRAO, TAKAHITO NAKAJIMA,
          TAKAO TSUNEDA, MUNEAKI KAMIYA, SUSUMU YANAGISAWA,
          KIYOSHI YAGI, MAHITO CHIBA, SEIKEN TOKURA, NAOAKI KAWAKAMI
     UNIVERSITY OF AARHUS: FRANK JENSEN
     UNIVERSITY OF IOWA: VISVALDAS KAIRYS, HUI LI
     NATIONAL INST. OF STANDARDS AND TECHNOLOGY: WALT STEVENS, DAVID GARMER
     UNIVERSITY OF PISA: BENEDETTA MENNUCCI, JACOPO TOMASI
     UNIVERSITY OF MEMPHIS: HENRY KURTZ, PRAKASHAN KORAMBATH
     UNIVERSITY OF ALBERTA: TOBY ZENG, MARIUSZ KLOBUKOWSKI
     UNIVERSITY OF NEW ENGLAND: MARK SPACKMAN
     MIE UNIVERSITY: HIROAKI UMEDA
     NAT. INST. OF ADVANCED INDUSTRIAL SCIENCE AND TECHNOLOGY: KAZUO KITAURA
     MICHIGAN STATE UNIVERSITY:
          KAROL KOWALSKI, MARTA WLOCH, JEFFREY GOUR, JESSE LUTZ,
          WEI LI, PIOTR PIECUCH
     UNIVERSITY OF SILESIA: MONIKA MUSIAL, STANISLAW KUCHARSKI
     FACULTES UNIVERSITAIRES NOTRE-DAME DE LA PAIX:
          OLIVIER QUINET, BENOIT CHAMPAGNE
     UNIVERSITY OF CALIFORNIA - SANTA BARBARA: BERNARD KIRTMAN
     INSTITUTE FOR MOLECULAR SCIENCE:
          KAZUYA ISHIMURA, MICHIO KATOUDA, AND SHIGERU NAGASE
     UNIVERSITY OF NOTRE DAME: ANNA POMOGAEVA, DAN CHIPMAN
     KYUSHU UNIVERSITY:
          HARUYUKI NAKANO,
          FENG LONG GU, JACEK KORCHOWIEC, MARCIN MAKOWSKI, AND YURIKO AOKI,
          HIROTOSHI MORI AND EISAKU MIYOSHI
     PENNSYLVANIA STATE UNIVERSITY:
          TZVETELIN IORDANOV, CHET SWALINA, JONATHAN SKONE,
          SHARON HAMMES-SCHIFFER
     WASEDA UNIVERSITY:
          MASATO KOBAYASHI, TOMOKO AKAMA, TSUGUKI TOUMA,
          TAKESHI YOSHIKAWA, YASUHIRO IKABATA, JUNJI SEINO,
          YUYA NAKAJIMA, HIROMI NAKAI
     NANJING UNIVERSITY: SHUHUA LI
     UNIVERSITY OF NEBRASKA:
          PEIFENG SU, DEJUN SI, NANDUN THELLAMUREGE, YALI WANG, HUI LI
     UNIVERSITY OF ZURICH: ROBERTO PEVERATI, KIM BALDRIDGE
     N. COPERNICUS UNIVERSITY AND JACKSON STATE UNIVERSITY:
          MARIA BARYSZ
     UNIVERSITY OF COPENHAGEN: Jimmy Kromann, CASPER STEINMANN
     TOKYO INSTITUTE OF TECHNOLOGY: HIROYA NAKATA
     NAGOYA UNIVERSITY: YOSHIO NISHIMOTO, STEPHAN IRLE
     MOSCOW STATE UNIVERSITY: VLADIMIR MIRONOV


 PARALLEL VERSION RUNNING ON       16 PROCESSORS IN        1 NODES.

 EXECUTION OF GAMESS BEGUN Mon Apr 17 23:11:26 2017

            ECHO OF THE FIRST FEW INPUT CARDS -
 INPUT CARD> $contrl coord=unique icharg=0 ispher=1 mult=1 runtyp=energy                    
 INPUT CARD>         scftyp=rhf cityp=cis units=bohr  $end                                  
 INPUT CARD> $basis  gbasis=ccd  $end                                                       
 INPUT CARD> $guess  guess=huckel  $end                                                     
 INPUT CARD> $cis    nstate=5 $end                                                          
 INPUT CARD> $DATA                                                                          
 INPUT CARD>A molecule.                                                                     
 INPUT CARD>C1                                                                              
 INPUT CARD>H 1.00       0.00000000       0.00000000       0.00000000                       
 INPUT CARD>H 1.00       2.700000000       0.00000000       0.00000000                      
 INPUT CARD> $END                                                                           
    1000000 WORDS OF MEMORY AVAILABLE

     BASIS OPTIONS
     -------------
     GBASIS=CCD          IGAUSS=       0      POLAR=NONE    
     NDFUNC=       0     NFFUNC=       0     DIFFSP=       F
     NPFUNC=       0      DIFFS=       F     BASNAM=        


     RUN TITLE
     ---------
 A molecule.                                                                     

 THE POINT GROUP OF THE MOLECULE IS C1      
 THE ORDER OF THE PRINCIPAL AXIS IS     0

 ATOM      ATOMIC                      COORDINATES (BOHR)
           CHARGE         X                   Y                   Z
 H           1.0     0.0000000000        0.0000000000        0.0000000000
 H           1.0     2.7000000000        0.0000000000        0.0000000000

          INTERNUCLEAR DISTANCES (ANGS.)
          ------------------------------

                1 H          2 H     

   1 H       0.0000000    1.4287786 *
   2 H       1.4287786 *  0.0000000  

  * ... LESS THAN  3.000


     ATOMIC BASIS SET
     ----------------
 THE CONTRACTED PRIMITIVE FUNCTIONS HAVE BEEN UNNORMALIZED
 THE CONTRACTED BASIS FUNCTIONS ARE NOW NORMALIZED TO UNITY

  SHELL TYPE  PRIMITIVE        EXPONENT          CONTRACTION COEFFICIENT(S)

 H         

      1   S       1            13.0100000    0.033498726390
      1   S       2             1.9620000    0.234800801174
      1   S       3             0.4446000    0.813682957883

      2   S       4             0.1220000    1.000000000000

      3   P       5             0.7270000    1.000000000000

 H         

      4   S       6            13.0100000    0.033498726390
      4   S       7             1.9620000    0.234800801174
      4   S       8             0.4446000    0.813682957883

      5   S       9             0.1220000    1.000000000000

      6   P      10             0.7270000    1.000000000000

 TOTAL NUMBER OF BASIS SET SHELLS             =    6
 NUMBER OF CARTESIAN GAUSSIAN BASIS FUNCTIONS =   10
 NOTE: THIS RUN WILL RESTRICT THE MO VARIATION SPACE TO SPHERICAL HARMONICS.
 THE NUMBER OF ORBITALS KEPT IN THE VARIATIONAL SPACE WILL BE PRINTED LATER.
 NUMBER OF ELECTRONS                          =    2
 CHARGE OF MOLECULE                           =    0
 SPIN MULTIPLICITY                            =    1
 NUMBER OF OCCUPIED ORBITALS (ALPHA)          =    1
 NUMBER OF OCCUPIED ORBITALS (BETA )          =    1
 TOTAL NUMBER OF ATOMS                        =    2
 THE NUCLEAR REPULSION ENERGY IS        0.3703703704

 THIS MOLECULE IS RECOGNIZED AS BEING LINEAR,
 ORBITAL LZ DEGENERACY TOLERANCE ETOLLZ= 1.00E-06

     $CONTRL OPTIONS
     ---------------
 SCFTYP=RHF          RUNTYP=ENERGY       EXETYP=RUN     
 MPLEVL=       0     CITYP =CIS          CCTYP =NONE         VBTYP =NONE    
 DFTTYP=NONE         TDDFT =NONE    
 MULT  =       1     ICHARG=       0     NZVAR =       0     COORD =UNIQUE  
 PP    =NONE         RELWFN=NONE         LOCAL =NONE         NUMGRD=       F
 ISPHER=       1     NOSYM =       0     MAXIT =      30     UNITS =BOHR    
 PLTORB=       F     MOLPLT=       F     AIMPAC=       F     FRIEND=        
 NPRINT=       7     IREST =       0     GEOM  =INPUT   
 NORMF =       0     NORMP =       0     ITOL  =      20     ICUT  =       9
 INTTYP=BEST         GRDTYP=BEST         QMTTOL= 1.0E-06

     $SYSTEM OPTIONS
     ---------------
  REPLICATED MEMORY=     1000000 WORDS (ON EVERY NODE).
 DISTRIBUTED MEMDDI=           0 MILLION WORDS IN AGGREGATE,
 MEMDDI DISTRIBUTED OVER  16 PROCESSORS IS           0 WORDS/PROCESSOR.
 TOTAL MEMORY REQUESTED ON EACH PROCESSOR=     1000000 WORDS.
 TIMLIM=      525600.00 MINUTES, OR     365.0 DAYS.
 PARALL= T  BALTYP=  DLB     KDIAG=    0  COREFL= F
 MXSEQ2=     300 MXSEQ3=     150  mem10=         0

          ----------------
          PROPERTIES INPUT
          ----------------

     MOMENTS            FIELD           POTENTIAL          DENSITY
 IEMOM =       1   IEFLD =       0   IEPOT =       0   IEDEN =       0
 WHERE =COMASS     WHERE =NUCLEI     WHERE =NUCLEI     WHERE =NUCLEI  
 OUTPUT=BOTH       OUTPUT=BOTH       OUTPUT=BOTH       OUTPUT=BOTH    
 IEMINT=       0   IEFINT=       0                     IEDINT=       0
                                                       MORB  =       0
          EXTRAPOLATION IN EFFECT
          SOSCF IN EFFECT
 ORBITAL PRINTING OPTION: NPREO=     1    10     2     1

     -------------------------------
     INTEGRAL TRANSFORMATION OPTIONS
     -------------------------------
     NWORD  =            0
     CUTOFF = 1.0E-09     MPTRAN =       0
     DIRTRF =       F     AOINTS =DUP     

          ----------------------
          INTEGRAL INPUT OPTIONS
          ----------------------
 NOPK  =       1 NORDER=       0 SCHWRZ=       F

     ------------------------------
     CI-SINGLES CONTROL INFORMATION
     ------------------------------
     NACORE =        0  NBCORE   =        0
     NSTATE =        5  IROOT    =        1
     HAMTYP = SAPS      SAP MULT =        1
     DIAGZN = DAVID     MXVEC    =       40
     NDAVIT =       50  DAVCVG   = 1.00E-05
     CISPRP =        F  NGSVEC   =       10
     MNMEDG =        F  MNMEOP   =        F
     CHFSLV = CONJG     RDCISV   =        F
     DGAPRX =        T

     NUMBER OF CORE -A-  ORBITALS =     0
     NUMBER OF CORE -B-  ORBITALS =     0
     NUMBER OF OCC. -A-  ORBITALS =     1
     NUMBER OF OCC. -B-  ORBITALS =     1
     NUMBER OF MOLECULAR ORBITALS =    10
     NUMBER OF   BASIS  FUNCTIONS =    10


     ------------------------------------------
     THE POINT GROUP IS C1 , NAXIS= 0, ORDER= 1
     ------------------------------------------

 -- VARIATIONAL SPACE WILL BE RESTRICTED TO PURE SPHERICAL HARMONICS ONLY --
 AFTER EXCLUDING CONTAMINANT COMBINATIONS FROM THE CARTESIAN GAUSSIAN BASIS
 SET, THE NUMBER OF SPHERICAL HARMONICS KEPT IN THE VARIATION SPACE IS   10

     DIMENSIONS OF THE SYMMETRY SUBSPACES ARE
 A   =   10

 ..... DONE SETTING UP THE RUN .....
 CPU     0: STEP CPU TIME=     0.01 TOTAL CPU TIME=        0.0 (    0.0 MIN)
 TOTAL WALL CLOCK TIME=        0.0 SECONDS, CPU UTILIZATION IS  25.00%

          ********************
          1 ELECTRON INTEGRALS
          ********************
 ...... END OF ONE-ELECTRON INTEGRALS ......
 CPU     0: STEP CPU TIME=     0.00 TOTAL CPU TIME=        0.0 (    0.0 MIN)
 TOTAL WALL CLOCK TIME=        0.1 SECONDS, CPU UTILIZATION IS   6.67%

          -------------
          GUESS OPTIONS
          -------------
          GUESS =HUCKEL            NORB  =       0          NORDER=       0
          MIX   =       F          PRTMO =       F          PUNMO =       F
          TOLZ  = 1.0E-08          TOLE  = 1.0E-05
          SYMDEN=       F          PURIFY=       F

 INITIAL GUESS ORBITALS GENERATED BY HUCKEL   ROUTINE.
 HUCKEL GUESS REQUIRES      2162 WORDS.

 SYMMETRIES FOR INITIAL GUESS ORBITALS FOLLOW.   BOTH SET(S).
     1 ORBITALS ARE OCCUPIED (    0 CORE ORBITALS).
     1=A        2=A        3=A        4=A        5=A        6=A        7=A   
     8=A        9=A       10=A   
 ...... END OF INITIAL ORBITAL SELECTION ......
 CPU     0: STEP CPU TIME=     0.01 TOTAL CPU TIME=        0.0 (    0.0 MIN)
 TOTAL WALL CLOCK TIME=        0.2 SECONDS, CPU UTILIZATION IS   8.00%

                    ----------------------
                    AO INTEGRAL TECHNOLOGY
                    ----------------------
     S,P,L SHELL ROTATED AXIS INTEGRALS, REPROGRAMMED BY
        KAZUYA ISHIMURA (IMS) AND JOSE SIERRA (SYNSTAR).
     S,P,D,L SHELL ROTATED AXIS INTEGRALS PROGRAMMED BY
        KAZUYA ISHIMURA (INSTITUTE FOR MOLECULAR SCIENCE).
     S,P,D,F,G SHELL TO TOTAL QUARTET ANGULAR MOMENTUM SUM 5,
        ERIC PROGRAM BY GRAHAM FLETCHER (ELORET AND NASA ADVANCED
        SUPERCOMPUTING DIVISION, AMES RESEARCH CENTER).
     S,P,D,F,G,L SHELL GENERAL RYS QUADRATURE PROGRAMMED BY
        MICHEL DUPUIS (PACIFIC NORTHWEST NATIONAL LABORATORY).

          --------------------
          2 ELECTRON INTEGRALS
          --------------------

 THE -PK- OPTION IS OFF, THE INTEGRALS ARE NOT IN SUPERMATRIX FORM.
 STORING   15000 INTEGRALS/RECORD ON DISK, USING 12 BYTES/INTEGRAL.
 TWO ELECTRON INTEGRAL EVALUATION REQUIRES   89377 WORDS OF MEMORY.
 II,JST,KST,LST =  1  1  1  1 NREC =         1 INTLOC =    1
 II,JST,KST,LST =  2  1  1  1 NREC =         1 INTLOC =    1
 II,JST,KST,LST =  3  1  1  1 NREC =         1 INTLOC =    5
 II,JST,KST,LST =  4  1  1  1 NREC =         1 INTLOC =    5
 II,JST,KST,LST =  5  1  1  1 NREC =         1 INTLOC =   25
 II,JST,KST,LST =  6  1  1  1 NREC =         1 INTLOC =   25
 TOTAL NUMBER OF NONZERO TWO-ELECTRON INTEGRALS =                 512
         16 INTEGRAL RECORDS WERE STORED ON DISK FILE  8.
  ...... END OF TWO-ELECTRON INTEGRALS .....
 CPU     0: STEP CPU TIME=     0.01 TOTAL CPU TIME=        0.0 (    0.0 MIN)
 TOTAL WALL CLOCK TIME=        0.3 SECONDS, CPU UTILIZATION IS   8.82%

          --------------------------
                 RHF SCF CALCULATION
          --------------------------

     NUCLEAR ENERGY =         0.3703703704
     MAXIT =   30     NPUNCH=    2
     EXTRAP=T  DAMP=F  SHIFT=F  RSTRCT=F  DIIS=F  DEM=F  SOSCF=T
     DENSITY MATRIX CONV=  1.00E-06
     SOSCF WILL OPTIMIZE       9 ORBITAL ROTATIONS, SOGTOL=   0.250
     MEMORY REQUIRED FOR RHF ITERS=     30876 WORDS.

 ITER EX DEM     TOTAL ENERGY        E CHANGE  DENSITY CHANGE     ORB. GRAD
   1  0  0       -0.9365150927    -0.9365150927   0.265850868   0.000000000
          ---------------START SECOND ORDER SCF---------------
   2  1  0       -1.0125474776    -0.0760323848   0.044689603   0.033607823
   3  2  0       -1.0155464672    -0.0029989897   0.008991435   0.005711720
   4  3  0       -1.0156426806    -0.0000962134   0.000051116   0.000127536
   5  4  0       -1.0156427112    -0.0000000306   0.000006718   0.000021078
   6  5  0       -1.0156427120    -0.0000000007   0.000000000   0.000000006

          -----------------
          DENSITY CONVERGED
          -----------------
     TIME TO FORM FOCK OPERATORS=       0.0 SECONDS (       0.0 SEC/ITER)
     TIME TO SOLVE SCF EQUATIONS=       0.0 SECONDS (       0.0 SEC/ITER)

 FINAL RHF ENERGY IS       -1.0156427120 AFTER   6 ITERATIONS

 LZ VALUE ANALYSIS FOR THE MOS
 ----------------------------------------
 MO     1 (    1) HAS LZ(WEIGHT)= 0.00(100.0%) 
 MO     2 (    2) HAS LZ(WEIGHT)= 0.00(100.0%) 
 MO     3 (    3) HAS LZ(WEIGHT)= 0.00(100.0%) 
 MO     4 (    4) HAS LZ(WEIGHT)= 0.00(100.0%) 
 MO     5 (    5) HAS LZ(WEIGHT)= 0.00(100.0%) 
 MO     6 (    6) HAS LZ(WEIGHT)= 0.00(100.0%) 
 MO     7 (    6) HAS LZ(WEIGHT)= 0.00(100.0%) 
 MO     8 (    7) HAS LZ(WEIGHT)= 0.00(100.0%) 
 MO     9 (    7) HAS LZ(WEIGHT)= 0.00(100.0%) 
 MO    10 (    8) HAS LZ(WEIGHT)= 0.00(100.0%) 

          ------------
          EIGENVECTORS
          ------------

                      1          2          3          4          5
                   -0.4489     0.0537     0.6303     0.6848     1.3063
                     A          A          A          A          A   
    1  H  1  S    0.336835   0.273620   0.890055   0.947209   0.273213
    2  H  1  S    0.305779   0.861093  -0.756691  -1.275899  -0.117582
    3  H  1  X    0.021560  -0.013182   0.110007  -0.053996  -0.617279
    4  H  1  Y    0.000000   0.000000   0.000000   0.000000   0.000000
    5  H  1  Z    0.000000   0.000000   0.000000   0.000000   0.000000
    6  H  2  S    0.336835  -0.273620   0.890055  -0.947209   0.273213
    7  H  2  S    0.305779  -0.861093  -0.756691   1.275899  -0.117582
    8  H  2  X   -0.021560  -0.013182  -0.110007  -0.053996   0.617279
    9  H  2  Y    0.000000   0.000000   0.000000   0.000000   0.000000
   10  H  2  Z    0.000000   0.000000   0.000000   0.000000   0.000000

                      6          7          8          9         10
                    1.3668     1.3668     1.6449     1.6449     2.2074
                     A          A          A          A          A   
    1  H  1  S    0.000000   0.000000   0.000000   0.000000   0.095007
    2  H  1  S    0.000000   0.000000   0.000000   0.000000   0.363984
    3  H  1  X    0.000000   0.000000   0.000000   0.000000   0.908416
    4  H  1  Y    0.667540   0.146265   0.674884  -0.287309   0.000000
    5  H  1  Z   -0.146265   0.667540  -0.287309  -0.674884   0.000000
    6  H  2  S    0.000000   0.000000   0.000000   0.000000  -0.095007
    7  H  2  S    0.000000   0.000000   0.000000   0.000000  -0.363984
    8  H  2  X    0.000000   0.000000   0.000000   0.000000   0.908416
    9  H  2  Y    0.667540   0.146265  -0.674884   0.287309   0.000000
   10  H  2  Z   -0.146265   0.667540   0.287309   0.674884   0.000000
 ...... END OF RHF CALCULATION ......
 CPU     0: STEP CPU TIME=     0.01 TOTAL CPU TIME=        0.0 (    0.0 MIN)
 TOTAL WALL CLOCK TIME=        0.8 SECONDS, CPU UTILIZATION IS   5.26%

     ----------------------------------------------------------------
     PROPERTY VALUES FOR THE RHF   SELF-CONSISTENT FIELD WAVEFUNCTION
     ----------------------------------------------------------------

          -----------------
          ENERGY COMPONENTS
          -----------------

         WAVEFUNCTION NORMALIZATION =       1.0000000000

                ONE ELECTRON ENERGY =      -1.8742328129
                TWO ELECTRON ENERGY =       0.4882197305
           NUCLEAR REPULSION ENERGY =       0.3703703704
                                      ------------------
                       TOTAL ENERGY =      -1.0156427120

 ELECTRON-ELECTRON POTENTIAL ENERGY =       0.4882197305
  NUCLEUS-ELECTRON POTENTIAL ENERGY =      -2.6199763383
   NUCLEUS-NUCLEUS POTENTIAL ENERGY =       0.3703703704
                                      ------------------
             TOTAL POTENTIAL ENERGY =      -1.7613862374
               TOTAL KINETIC ENERGY =       0.7457435254
                 VIRIAL RATIO (V/T) =       2.3619195841

  ...... PI ENERGY ANALYSIS ......

 ENERGY ANALYSIS:
            FOCK ENERGY=     -0.8977933499
          BARE H ENERGY=     -1.8742328129
     ELECTRONIC ENERGY =     -1.3860130814
         KINETIC ENERGY=      0.7457435254
          N-N REPULSION=      0.3703703704
           TOTAL ENERGY=     -1.0156427110
        SIGMA PART(1+2)=     -1.3860130814
               (K,V1,2)=      0.7457435254     -2.6199763383      0.4882197315
           PI PART(1+2)=      0.0000000000
               (K,V1,2)=      0.0000000000      0.0000000000      0.0000000000
  SIGMA SKELETON, ERROR=     -1.0156427110     -0.0000000000
             MIXED PART= 0.00000E+00 0.00000E+00 0.00000E+00 0.00000E+00
 ...... END OF PI ENERGY ANALYSIS ......

          ---------------------------------------
          MULLIKEN AND LOWDIN POPULATION ANALYSES
          ---------------------------------------

               ----- POPULATIONS IN EACH AO -----
                             MULLIKEN      LOWDIN
              1  H  1  S      0.47405     0.44068
              2  H  1  S      0.51950     0.54945
              3  H  1  X      0.00645     0.00987
              4  H  1  Y      0.00000     0.00000
              5  H  1  Z      0.00000     0.00000
              6  H  2  S      0.47405     0.44068
              7  H  2  S      0.51950     0.54945
              8  H  2  X      0.00645     0.00987
              9  H  2  Y      0.00000     0.00000
             10  H  2  Z      0.00000     0.00000

          ----- MULLIKEN ATOMIC OVERLAP POPULATIONS -----
          (OFF-DIAGONAL ELEMENTS NEED TO BE MULTIPLIED BY 2)

             1           2

    1    0.6970033
    2    0.3029967   0.6970033

          TOTAL MULLIKEN AND LOWDIN ATOMIC POPULATIONS
       ATOM         MULL.POP.    CHARGE          LOW.POP.     CHARGE
    1 H             1.000000    0.000000         1.000000    0.000000
    2 H             1.000000   -0.000000         1.000000   -0.000000

          MULLIKEN SPHERICAL HARMONIC POPULATIONS
       ATOM           S       P       D      F      G      H      I    TOTAL
    1 H             0.99    0.01    0.00   0.00   0.00   0.00   0.00    1.00
    2 H             0.99    0.01    0.00   0.00   0.00   0.00   0.00    1.00

          ---------------------
          ELECTROSTATIC MOMENTS
          ---------------------

 POINT   1           X           Y           Z (BOHR)    CHARGE
                 1.350000    0.000000    0.000000       -0.00 (A.U.)
         DX          DY          DZ         /D/  (DEBYE)
    -0.000000    0.000000    0.000000    0.000000
 ...... END OF PROPERTY EVALUATION ......
 CPU     0: STEP CPU TIME=     0.01 TOTAL CPU TIME=        0.0 (    0.0 MIN)
 TOTAL WALL CLOCK TIME=        0.9 SECONDS, CPU UTILIZATION IS   5.75%

 MXVEC CANNOT BE BIGGER THAN THE NUMBER OF CIS CONFIGS
 SETTING MXVEC = NCFG


          ---------------------------------------------
             ATOMIC ORBITAL BASIS CI-SINGLES ENERGY
             PROGRAM WRITTEN BY SIMON P. WEBB
          ---------------------------------------------

 # CORE ORBITALS      =    0
 # OCCUPIED ORBITALS  =    1
 # MOLECULAR ORBITALS =   10
 # BASIS FUNCTIONS    =   10

 NUMBER OF CIS SPIN-ADAPTED ANTISYMMETRIZED PRODUCTS (SAPS) IS       9

 APPROXIMATING CIS HAMILTONIAN DIAGONAL ELEMENTS USING ONLY ORBITAL ENERGIES

 -CIS- HAM. DIAGONAL ELEMENTS  TOOK      0.000 SECONDS

 MIN MEMORY REQ. FOR CIS ENERGY FOCK-LIKE BUILDS =       200 WORDS
 MEMORY REQ. FOR SINGLE BATCH BUILDS             =      1800 WORDS
 MEMORY AVAILABLE                                =    968641 WORDS

 SINGLE BATCH ENERGY CALCULATION WILL BE PERFORMED

 UNIT VECTOR GUESS AT CIS COEFFICIENTS ...

 USING IN MEMORY DIAGONALIZTION TO FIND CIS EIGENVALUES AND EIGENVECTORS ...

 STATE    1 ENERGY=       -0.6829679315
 STATE    2 ENERGY=       -0.2074079853
 STATE    3 ENERGY=       -0.1550010886
 STATE    4 ENERGY=        0.3810880447
 STATE    5 ENERGY=        0.4527007467


        --------------------------------------------------------
        RESULTS FROM SPIN-ADAPTED ANTISYMMETRIZED PRODUCT (SAPS)
        BASED ATOMIC ORBITAL CI-SINGLES ENERGY CALCULATION
        --------------------------------------------------------

 PRINTING CIS COEFFICIENTS LARGER THAN  0.050000

 RHF REFERENCE ENERGY  =        -1.0156427120


 EXCITED STATE   1  ENERGY=        -0.6829679315  S = 0.0  SPACE SYM = A   

          ----------------------------------------------
          SINGLE EXCITATION               SAP COEFFICENT
          FROM MO     TO MO
          ----------------------------------------------
             1          2                  -0.99862639
             1          4                   0.05236446
          ----------------------------------------------


 EXCITED STATE   2  ENERGY=        -0.2074079853  S = 0.0  SPACE SYM = A   

          ----------------------------------------------
          SINGLE EXCITATION               SAP COEFFICENT
          FROM MO     TO MO
          ----------------------------------------------
             1          3                   0.99980692
          ----------------------------------------------


 EXCITED STATE   3  ENERGY=        -0.1550010886  S = 0.0  SPACE SYM = A   

          ----------------------------------------------
          SINGLE EXCITATION               SAP COEFFICENT
          FROM MO     TO MO
          ----------------------------------------------
             1          2                   0.05233394
             1          4                   0.99853089
          ----------------------------------------------


 EXCITED STATE   4  ENERGY=         0.3810880447  S = 0.0  SPACE SYM = A   

          ----------------------------------------------
          SINGLE EXCITATION               SAP COEFFICENT
          FROM MO     TO MO
          ----------------------------------------------
             1          5                  -0.99980692
          ----------------------------------------------


 EXCITED STATE   5  ENERGY=         0.4527007467  S = 0.0  SPACE SYM = A   

          ----------------------------------------------
          SINGLE EXCITATION               SAP COEFFICENT
          FROM MO     TO MO
          ----------------------------------------------
             1          7                   0.99947842
          ----------------------------------------------

  ---------------------------------------------------------------------
                    CI-SINGLES EXCITATION ENERGIES
  STATE       HARTREE        EV      KCAL/MOL       CM-1         NM
  ---------------------------------------------------------------------
   1A     0.3326747805     9.0525    208.7566      73013.67     136.96
   1A     0.8082347267    21.9932    507.1750     177387.02      56.37
   1A     0.8606416233    23.4193    540.0608     188889.00      52.94
   1A     1.3967307567    38.0070    876.4619     306546.97      32.62
   1A     1.4683434587    39.9557    921.3996     322264.14      31.03

 -CIS- ENERGY                  TOOK      0.000 SECONDS

  ---------------------------------------------------------------------
                    CIS TRANSITION DIPOLE MOMENTS AND
                    EXPECTATION VALUES OF DIPOLE MOMENTS
  ---------------------------------------------------------------------

 GROUND STATE (SCF) DIPOLE=    -0.000000     0.000000     0.000000 DEBYE

 TRANSITION FROM THE GROUND STATE TO EXCITED STATE  1

 STATE MULTIPLICITIES =   1  1
 STATE ENERGIES =         -1.0156427120       -0.6829679315
 EXCITATION ENERGY =  2.1889E+15 [1/SEC] =    73013.67 [1/CM] =      9.05 [EV]
                            X           Y           Z           NORM
 TRANSITION DIPOLE =    2.152503    0.000000   -0.000000    2.152503 E*BOHR
 TRANSITION DIPOLE =    5.471159    0.000000   -0.000000    5.471159 DEBYE
 OSCILLATOR STRENGTH =    1.027581
 EINSTEIN COEFFICIENTS: A=  3.6540E+09 1/SEC; B=  1.8804E+09 SEC/G

 TRANSITION FROM THE GROUND STATE TO EXCITED STATE  2

 STATE MULTIPLICITIES =   1  1
 STATE ENERGIES =         -1.0156427120       -0.2074079853
 EXCITATION ENERGY =  5.3179E+15 [1/SEC] =   177387.02 [1/CM] =     21.99 [EV]
                            X           Y           Z           NORM
 TRANSITION DIPOLE =   -0.000000   -0.000000   -0.000000    0.000000 E*BOHR
 TRANSITION DIPOLE =   -0.000000   -0.000000   -0.000000    0.000000 DEBYE
 OSCILLATOR STRENGTH =    0.000000
 EINSTEIN COEFFICIENTS: A=  4.6421E-20 1/SEC; B=  1.6658E-21 SEC/G

 TRANSITION FROM THE GROUND STATE TO EXCITED STATE  3

 STATE MULTIPLICITIES =   1  1
 STATE ENERGIES =         -1.0156427120       -0.1550010886
 EXCITATION ENERGY =  5.6627E+15 [1/SEC] =   188889.00 [1/CM] =     23.42 [EV]
                            X           Y           Z           NORM
 TRANSITION DIPOLE =   -0.091737    0.000000   -0.000000    0.091737 E*BOHR
 TRANSITION DIPOLE =   -0.233173    0.000000   -0.000000    0.233173 DEBYE
 OSCILLATOR STRENGTH =    0.004829
 EINSTEIN COEFFICIENTS: A=  1.1492E+08 1/SEC; B=  3.4154E+06 SEC/G

 TRANSITION FROM THE GROUND STATE TO EXCITED STATE  4

 STATE MULTIPLICITIES =   1  1
 STATE ENERGIES =         -1.0156427120        0.3810880447
 EXCITATION ENERGY =  9.1900E+15 [1/SEC] =   306546.97 [1/CM] =     38.01 [EV]
                            X           Y           Z           NORM
 TRANSITION DIPOLE =   -0.000000    0.000000   -0.000000    0.000000 E*BOHR
 TRANSITION DIPOLE =   -0.000000    0.000000   -0.000000    0.000000 DEBYE
 OSCILLATOR STRENGTH =    0.000000
 EINSTEIN COEFFICIENTS: A=  4.2615E-18 1/SEC; B=  2.9632E-20 SEC/G

 TRANSITION FROM THE GROUND STATE TO EXCITED STATE  5

 STATE MULTIPLICITIES =   1  1
 STATE ENERGIES =         -1.0156427120        0.4527007467
 EXCITATION ENERGY =  9.6612E+15 [1/SEC] =   322264.14 [1/CM] =     39.96 [EV]
                            X           Y           Z           NORM
 TRANSITION DIPOLE =   -0.000000    0.239434    0.945580    0.975423 E*BOHR
 TRANSITION DIPOLE =   -0.000000    0.608584    2.403443    2.479297 DEBYE
 OSCILLATOR STRENGTH =    0.931370
 EINSTEIN COEFFICIENTS: A=  6.4520E+10 1/SEC; B=  3.8614E+08 SEC/G

 EXPECTATION VALUE DIPOLE MOMENT FOR EXCITED STATE  1

 STATE MULTIPLICITY =   1
 STATE ENERGY =         -0.6829679315
                            X           Y           Z           NORM
      STATE DIPOLE =    0.000000   -0.000000   -0.000000    0.000000 E*BOHR
      STATE DIPOLE =    0.000000   -0.000000   -0.000000    0.000000 DEBYE

 TRANSITION BETWEEN EXCITED STATES   1 AND  2

 STATE MULTIPLICITIES=  1  1
 STATE ENERGIES =         -0.6829679315       -0.2074079853
 TRANSITION ENERGY =  3.1290E+15 [1/SEC] =   104373.34 [1/CM] =       12.94 [EV]
                            X           Y           Z           NORM
 TRANSITION DIPOLE =   -0.799419   -0.000000    0.000000    0.799419 E*BOHR
 TRANSITION DIPOLE =   -2.031936   -0.000000    0.000000    2.031936 DEBYE
 OSCILLATOR STRENGTH =    0.202611
 EINSTEIN COEFFICIENTS: A=  1.4723E+09 1/SEC; B=  2.5936E+08 SEC/G

 TRANSITION BETWEEN EXCITED STATES   1 AND  3

 STATE MULTIPLICITIES=  1  1
 STATE ENERGIES =         -0.6829679315       -0.1550010886
 TRANSITION ENERGY =  3.4739E+15 [1/SEC] =   115875.33 [1/CM] =       14.37 [EV]
                            X           Y           Z           NORM
 TRANSITION DIPOLE =    0.000000   -0.000000   -0.000000    0.000000 E*BOHR
 TRANSITION DIPOLE =    0.000000   -0.000000   -0.000000    0.000000 DEBYE
 OSCILLATOR STRENGTH =    0.000000
 EINSTEIN COEFFICIENTS: A=  2.4455E-20 1/SEC; B=  3.1484E-21 SEC/G

 TRANSITION BETWEEN EXCITED STATES   1 AND  4

 STATE MULTIPLICITIES=  1  1
 STATE ENERGIES =         -0.6829679315        0.3810880447
 TRANSITION ENERGY =  7.0012E+15 [1/SEC] =   233533.29 [1/CM] =       28.95 [EV]
                            X           Y           Z           NORM
 TRANSITION DIPOLE =   -0.896726   -0.000000   -0.000000    0.896726 E*BOHR
 TRANSITION DIPOLE =   -2.279268   -0.000000   -0.000000    2.279268 DEBYE
 OSCILLATOR STRENGTH =    0.570418
 EINSTEIN COEFFICIENTS: A=  2.0751E+10 1/SEC; B=  3.2634E+08 SEC/G

 TRANSITION BETWEEN EXCITED STATES   1 AND  5

 STATE MULTIPLICITIES=  1  1
 STATE ENERGIES =         -0.6829679315        0.4527007467
 TRANSITION ENERGY =  7.4723E+15 [1/SEC] =   249250.46 [1/CM] =       30.90 [EV]
                            X           Y           Z           NORM
 TRANSITION DIPOLE =    0.000000    0.000000    0.000000    0.000000 E*BOHR
 TRANSITION DIPOLE =    0.000000    0.000000    0.000000    0.000000 DEBYE
 OSCILLATOR STRENGTH =    0.000000
 EINSTEIN COEFFICIENTS: A=  4.7959E-19 1/SEC; B=  6.2036E-21 SEC/G

 EXPECTATION VALUE DIPOLE MOMENT FOR EXCITED STATE  2

 STATE MULTIPLICITY =   1
 STATE ENERGY =         -0.2074079853
                            X           Y           Z           NORM
      STATE DIPOLE =    0.000000   -0.000000   -0.000000    0.000000 E*BOHR
      STATE DIPOLE =    0.000000   -0.000000   -0.000000    0.000000 DEBYE

 TRANSITION BETWEEN EXCITED STATES   2 AND  3

 STATE MULTIPLICITIES=  1  1
 STATE ENERGIES =         -0.2074079853       -0.1550010886
 TRANSITION ENERGY =  3.4482E+14 [1/SEC] =    11501.98 [1/CM] =        1.43 [EV]
                            X           Y           Z           NORM
 TRANSITION DIPOLE =   -1.653994    0.000000   -0.000000    1.653994 E*BOHR
 TRANSITION DIPOLE =   -4.204067    0.000000   -0.000000    4.204067 DEBYE
 OSCILLATOR STRENGTH =    0.095580
 EINSTEIN COEFFICIENTS: A=  8.4345E+06 1/SEC; B=  1.1103E+09 SEC/G

 TRANSITION BETWEEN EXCITED STATES   2 AND  4

 STATE MULTIPLICITIES=  1  1
 STATE ENERGIES =         -0.2074079853        0.3810880447
 TRANSITION ENERGY =  3.8721E+15 [1/SEC] =   129159.95 [1/CM] =       16.01 [EV]
                            X           Y           Z           NORM
 TRANSITION DIPOLE =    0.000000   -0.000000    0.000000    0.000000 E*BOHR
 TRANSITION DIPOLE =    0.000000   -0.000000    0.000000    0.000000 DEBYE
 OSCILLATOR STRENGTH =    0.000000
 EINSTEIN COEFFICIENTS: A=  1.4243E-20 1/SEC; B=  1.3240E-21 SEC/G

 TRANSITION BETWEEN EXCITED STATES   2 AND  5

 STATE MULTIPLICITIES=  1  1
 STATE ENERGIES =         -0.2074079853        0.4527007467
 TRANSITION ENERGY =  4.3433E+15 [1/SEC] =   144877.12 [1/CM] =       17.96 [EV]
                            X           Y           Z           NORM
 TRANSITION DIPOLE =    0.000000   -0.005162   -0.020384    0.021027 E*BOHR
 TRANSITION DIPOLE =    0.000000   -0.013119   -0.051812    0.053447 DEBYE
 OSCILLATOR STRENGTH =    0.000195
 EINSTEIN COEFFICIENTS: A=  2.7242E+06 1/SEC; B=  1.7944E+05 SEC/G

 EXPECTATION VALUE DIPOLE MOMENT FOR EXCITED STATE  3

 STATE MULTIPLICITY =   1
 STATE ENERGY =         -0.1550010886
                            X           Y           Z           NORM
      STATE DIPOLE =   -0.000000   -0.000000   -0.000000    0.000000 E*BOHR
      STATE DIPOLE =   -0.000000   -0.000000   -0.000000    0.000000 DEBYE

 TRANSITION BETWEEN EXCITED STATES   3 AND  4

 STATE MULTIPLICITIES=  1  1
 STATE ENERGIES =         -0.1550010886        0.3810880447
 TRANSITION ENERGY =  3.5273E+15 [1/SEC] =   117657.96 [1/CM] =       14.59 [EV]
                            X           Y           Z           NORM
 TRANSITION DIPOLE =    0.412364    0.000000    0.000000    0.412364 E*BOHR
 TRANSITION DIPOLE =    1.048132    0.000000    0.000000    1.048132 DEBYE
 OSCILLATOR STRENGTH =    0.060772
 EINSTEIN COEFFICIENTS: A=  5.6117E+08 1/SEC; B=  6.9011E+07 SEC/G

 TRANSITION BETWEEN EXCITED STATES   3 AND  5

 STATE MULTIPLICITIES=  1  1
 STATE ENERGIES =         -0.1550010886        0.4527007467
 TRANSITION ENERGY =  3.9985E+15 [1/SEC] =   133375.14 [1/CM] =       16.54 [EV]
                            X           Y           Z           NORM
 TRANSITION DIPOLE =   -0.000000   -0.000000   -0.000000    0.000000 E*BOHR
 TRANSITION DIPOLE =   -0.000000   -0.000000   -0.000000    0.000000 DEBYE
 OSCILLATOR STRENGTH =    0.000000
 EINSTEIN COEFFICIENTS: A=  2.1968E-20 1/SEC; B=  1.8546E-21 SEC/G

 EXPECTATION VALUE DIPOLE MOMENT FOR EXCITED STATE  4

 STATE MULTIPLICITY =   1
 STATE ENERGY =          0.3810880447
                            X           Y           Z           NORM
      STATE DIPOLE =   -0.000000    0.000000   -0.000000    0.000000 E*BOHR
      STATE DIPOLE =   -0.000000    0.000000   -0.000000    0.000000 DEBYE

 TRANSITION BETWEEN EXCITED STATES   4 AND  5

 STATE MULTIPLICITIES=  1  1
 STATE ENERGIES =          0.3810880447        0.4527007467
 TRANSITION ENERGY =  4.7119E+14 [1/SEC] =    15717.17 [1/CM] =        1.95 [EV]
                            X           Y           Z           NORM
 TRANSITION DIPOLE =   -0.000000   -0.010930   -0.043167    0.044529 E*BOHR
 TRANSITION DIPOLE =   -0.000000   -0.027782   -0.109719    0.113182 DEBYE
 OSCILLATOR STRENGTH =    0.000095
 EINSTEIN COEFFICIENTS: A=  1.5598E+04 1/SEC; B=  8.0471E+05 SEC/G

 EXPECTATION VALUE DIPOLE MOMENT FOR EXCITED STATE  5

 STATE MULTIPLICITY =   1
 STATE ENERGY =          0.4527007467
                            X           Y           Z           NORM
      STATE DIPOLE =   -0.000000   -0.000000   -0.000000    0.000000 E*BOHR
      STATE DIPOLE =   -0.000000   -0.000000   -0.000000    0.000000 DEBYE

 CIS NATURAL ORBITAL OCCUPATION NUMBERS FOR EXCITED STATE    1 ARE
  1.0000 1.0000 0.0000 0.0000 0.0000 0.0000 0.0000 0.0000 0.0000 0.0000
 THERE ARE     1.0000 ELECTRONS IN PRINCIPAL CIS NATURAL ORBITALS.
 THERE ARE     1.0000 ELECTRONS IN SECONDARY CIS NATURAL ORBITALS.

          --------------------
          CIS NATURAL ORBITALS
          --------------------

                      1          2          3          4          5

                    1.0000     1.0000     0.0000     0.0000     0.0000

    1  H  1  S   -0.336835  -0.223817  -0.642935   0.798801   0.478289
    2  H  1  S   -0.305779  -0.927382   1.150051  -0.706560  -0.295263
    3  H  1  X   -0.021560   0.008688   0.654973   0.254543  -0.573012
    4  H  1  Y    0.000000  -0.000000   0.000000   0.000000   0.000000
    5  H  1  Z    0.000000  -0.000000   0.000000   0.000000   0.000000
    6  H  2  S   -0.336835   0.223817   0.642935   0.798801   0.478289
    7  H  2  S   -0.305779   0.927382  -1.150051  -0.706560  -0.295263
    8  H  2  X    0.021560   0.008688   0.654973  -0.254543   0.573012
    9  H  2  Y    0.000000  -0.000000   0.000000   0.000000   0.000000
   10  H  2  Z    0.000000  -0.000000   0.000000   0.000000   0.000000

                      6          7          8          9         10

                    0.0000     0.0000     0.0000     0.0000     0.0000

    1  H  1  S    0.000000   0.000000   0.000000   0.656775   0.293744
    2  H  1  S    0.000000   0.000000   0.000000  -0.515769  -0.230679
    3  H  1  X    0.000000   0.000000   0.000000   0.576796   0.257973
    4  H  1  Y   -0.194082  -0.676090  -0.284460  -0.267519   0.598138
    5  H  1  Z    0.655237   0.284460  -0.676090  -0.079239   0.177170
    6  H  2  S    0.000000   0.000000   0.000000  -0.656775  -0.293744
    7  H  2  S    0.000000   0.000000   0.000000   0.515769   0.230679
    8  H  2  X    0.000000   0.000000   0.000000   0.576796   0.257973
    9  H  2  Y   -0.194082   0.676090   0.284460  -0.267519   0.598138
   10  H  2  Z    0.655237  -0.284460   0.676090  -0.079239   0.177170

 THE CIS NATURAL ORBITALS HAVE BEEN PUNCHED.

 ..... DONE WITH CIS ENERGY .....

 CPU     0: STEP CPU TIME=     0.00 TOTAL CPU TIME=        0.0 (    0.0 MIN)
 TOTAL WALL CLOCK TIME=        1.1 SECONDS, CPU UTILIZATION IS   4.42%

     -------------------------------------------------------------
     CIS   PROPERTIES...FOR THE WAVEFUNCTION OF EXCITED STATE    1
                 USING THE EXPECTATION VALUE DENSITY
     -------------------------------------------------------------

          -----------------
          ENERGY COMPONENTS
          -----------------

         WAVEFUNCTION NORMALIZATION =       1.0000000000

                ONE ELECTRON ENERGY =      -1.5628804405
                TWO ELECTRON ENERGY =       0.5095421386
           NUCLEAR REPULSION ENERGY =       0.3703703704
                                      ------------------
                       TOTAL ENERGY =      -0.6829679315

 ELECTRON-ELECTRON POTENTIAL ENERGY =       0.5095421386
  NUCLEUS-ELECTRON POTENTIAL ENERGY =      -2.3349564136
   NUCLEUS-NUCLEUS POTENTIAL ENERGY =       0.3703703704
                                      ------------------
             TOTAL POTENTIAL ENERGY =      -1.4550439046
               TOTAL KINETIC ENERGY =       0.7720759732
                 VIRIAL RATIO (V/T) =       1.8845864335

          ---------------------------------------
          MULLIKEN AND LOWDIN POPULATION ANALYSES
          ---------------------------------------

               ----- POPULATIONS IN EACH AO -----
                             MULLIKEN      LOWDIN
              1  H  1  S      0.35246     0.39597
              2  H  1  S      0.64242     0.58028
              3  H  1  X      0.00512     0.02376
              4  H  1  Y      0.00000     0.00000
              5  H  1  Z      0.00000     0.00000
              6  H  2  S      0.35246     0.39597
              7  H  2  S      0.64242     0.58028
              8  H  2  X      0.00512     0.02376
              9  H  2  Y      0.00000     0.00000
             10  H  2  Z      0.00000     0.00000

          ----- MULLIKEN ATOMIC OVERLAP POPULATIONS -----
          (OFF-DIAGONAL ELEMENTS NEED TO BE MULTIPLIED BY 2)

             1           2

    1    1.5430119
    2   -0.5430119   1.5430119

          TOTAL MULLIKEN AND LOWDIN ATOMIC POPULATIONS
       ATOM         MULL.POP.    CHARGE          LOW.POP.     CHARGE
    1 H             1.000000   -0.000000         1.000000   -0.000000
    2 H             1.000000    0.000000         1.000000   -0.000000

          MULLIKEN SPHERICAL HARMONIC POPULATIONS
       ATOM           S       P       D      F      G      H      I    TOTAL
    1 H             0.99    0.01    0.00   0.00   0.00   0.00   0.00    1.00
    2 H             0.99    0.01    0.00   0.00   0.00   0.00   0.00    1.00

          ---------------------
          ELECTROSTATIC MOMENTS
          ---------------------

 POINT   1           X           Y           Z (BOHR)    CHARGE
                 1.350000    0.000000    0.000000        0.00 (A.U.)
         DX          DY          DZ         /D/  (DEBYE)
     0.000000   -0.000000   -0.000000    0.000000
 ...... END OF PROPERTY EVALUATION ......
 CPU     0: STEP CPU TIME=     0.00 TOTAL CPU TIME=        0.0 (    0.0 MIN)
 TOTAL WALL CLOCK TIME=        1.2 SECONDS, CPU UTILIZATION IS   4.10%
                580000  WORDS OF DYNAMIC MEMORY USED
 EXECUTION OF GAMESS TERMINATED NORMALLY Mon Apr 17 23:11:27 2017
 DDI: 263640 bytes (0.3 MB / 0 MWords) used by master data server.

 ----------------------------------------
 CPU timing information for all processes
 ========================================
 0: 0.23 + 0.35 = 0.59
 1: 0.10 + 0.17 = 0.27
 2: 0.09 + 0.19 = 0.28
 3: 0.09 + 0.16 = 0.25
 4: 0.09 + 0.26 = 0.36
 5: 0.09 + 0.18 = 0.27
 6: 0.07 + 0.21 = 0.28
 7: 0.14 + 0.11 = 0.25
 8: 0.10 + 0.25 = 0.36
 9: 0.05 + 0.17 = 0.23
 10: 0.13 + 0.15 = 0.28
 11: 0.12 + 0.11 = 0.24
 12: 0.07 + 0.24 = 0.32
 13: 0.11 + 0.11 = 0.23
 14: 0.11 + 0.16 = 0.28
 15: 0.07 + 0.13 = 0.21
 ----------------------------------------
 ddikick.x: exited gracefully.
----- accounting info -----
Files used on the master node kylin.physics.illinois.edu were:
-rw-rw-r--. 1 yyang173 yyang173     331 Apr 17 23:11 /scr/yyang173/sep2.70-cis.F05
-rw-rw-r--. 1 yyang173 yyang173  180016 Apr 17 23:11 /scr/yyang173/sep2.70-cis.F08
-rw-rw-r--. 1 yyang173 yyang173  180016 Apr 17 23:11 /scr/yyang173/sep2.70-cis.F08.001
-rw-rw-r--. 1 yyang173 yyang173  180016 Apr 17 23:11 /scr/yyang173/sep2.70-cis.F08.002
-rw-rw-r--. 1 yyang173 yyang173  180016 Apr 17 23:11 /scr/yyang173/sep2.70-cis.F08.003
-rw-rw-r--. 1 yyang173 yyang173  180016 Apr 17 23:11 /scr/yyang173/sep2.70-cis.F08.004
-rw-rw-r--. 1 yyang173 yyang173  180016 Apr 17 23:11 /scr/yyang173/sep2.70-cis.F08.005
-rw-rw-r--. 1 yyang173 yyang173  180016 Apr 17 23:11 /scr/yyang173/sep2.70-cis.F08.006
-rw-rw-r--. 1 yyang173 yyang173  180016 Apr 17 23:11 /scr/yyang173/sep2.70-cis.F08.007
-rw-rw-r--. 1 yyang173 yyang173  180016 Apr 17 23:11 /scr/yyang173/sep2.70-cis.F08.008
-rw-rw-r--. 1 yyang173 yyang173  180016 Apr 17 23:11 /scr/yyang173/sep2.70-cis.F08.009
-rw-rw-r--. 1 yyang173 yyang173  180016 Apr 17 23:11 /scr/yyang173/sep2.70-cis.F08.010
-rw-rw-r--. 1 yyang173 yyang173  180016 Apr 17 23:11 /scr/yyang173/sep2.70-cis.F08.011
-rw-rw-r--. 1 yyang173 yyang173  180016 Apr 17 23:11 /scr/yyang173/sep2.70-cis.F08.012
-rw-rw-r--. 1 yyang173 yyang173  180016 Apr 17 23:11 /scr/yyang173/sep2.70-cis.F08.013
-rw-rw-r--. 1 yyang173 yyang173  180016 Apr 17 23:11 /scr/yyang173/sep2.70-cis.F08.014
-rw-rw-r--. 1 yyang173 yyang173  180016 Apr 17 23:11 /scr/yyang173/sep2.70-cis.F08.015
-rw-rw-r--. 1 yyang173 yyang173 1636000 Apr 17 23:11 /scr/yyang173/sep2.70-cis.F10
-rw-rw-r--. 1 yyang173 yyang173     400 Apr 17 23:11 /scr/yyang173/sep2.70-cis.F12
Mon Apr 17 23:11:30 CDT 2017
0.172u 0.057s 0:04.86 4.5%	0+0k 0+16io 0pf+0w
