----- GAMESS execution script 'rungms' -----
This job is running on host kylin.physics.illinois.edu
under operating system Linux at Mon Apr 17 23:11:20 CDT 2017
Available scratch disk space (Kbyte units) at beginning of the job is
Filesystem                    1K-blocks     Used Available Use% Mounted on
/dev/mapper/fedora_kylin-root 110123880 60566544  44515220  58% /
GAMESS temporary binary files will be written to /scr/yyang173
GAMESS supplementary output files will be written to /home/yyang173/Desktop/attempts/drag-node/hf_grid/ccd_cis/sep2.60
Copying input file sep2.60-cis.inp to your run's scratch directory...
 
Assuming a single but multicore node.
 

 Distributed Data Interface kickoff program.
 Initiating 16 compute processes on 1 nodes to run the following command:
 /opt/intel17/apps/gamess_2016R1/gamess.00.x sep2.60-cis 

          ******************************************************
          *         GAMESS VERSION = 18 AUG 2016 (R1)          *
          *             FROM IOWA STATE UNIVERSITY             *
          * M.W.SCHMIDT, K.K.BALDRIDGE, J.A.BOATZ, S.T.ELBERT, *
          *   M.S.GORDON, J.H.JENSEN, S.KOSEKI, N.MATSUNAGA,   *
          *          K.A.NGUYEN, S.J.SU, T.L.WINDUS,           *
          *       TOGETHER WITH M.DUPUIS, J.A.MONTGOMERY       *
          *         J.COMPUT.CHEM.  14, 1347-1363(1993)        *
          **************** 64 BIT INTEL VERSION ****************

  SINCE 1993, STUDENTS AND POSTDOCS WORKING AT IOWA STATE UNIVERSITY
  AND ALSO IN THEIR VARIOUS JOBS AFTER LEAVING ISU HAVE MADE IMPORTANT
  CONTRIBUTIONS TO THE CODE:
     IVANA ADAMOVIC, CHRISTINE AIKENS, YURI ALEXEEV, POOJA ARORA,
     ANDREY ASADCHEV, ROB BELL, PRADIPTA BANDYOPADHYAY, JONATHAN BENTZ,
     BRETT BODE, KURT BRORSEN, CALEB CARLIN, GALINA CHABAN, WEI CHEN,
     CHEOL HO CHOI, PAUL DAY, ALBERT DEFUSCO, NUWAN DESILVA, TIM DUDLEY,
     DMITRI FEDOROV, GRAHAM FLETCHER, MARK FREITAG, KURT GLAESEMANN,
     DAN KEMP, GRANT MERRILL, NORIYUKI MINEZAWA, JONATHAN MULLIN,
     TAKESHI NAGATA, SEAN NEDD, HEATHER NETZLOFF, BOSILJKA NJEGIC, RYAN OLSON,
     MIKE PAK, SPENCER PRUITT, LUKE ROSKOP, JIM SHOEMAKER, LYUDMILA SLIPCHENKO,
     TONY SMITH, SAROM SOK LEANG, JIE SONG, TETSUYA TAKETSUGU, SIMON WEBB,
     PENG XU, SOOHAENG YOO, FEDERICO ZAHARIEV

  ADDITIONAL CODE HAS BEEN PROVIDED BY COLLABORATORS IN OTHER GROUPS:
     IOWA STATE UNIVERSITY:
          JOE IVANIC, AARON WEST, LAIMUTIS BYTAUTAS, KLAUS RUEDENBERG
     UNIVERSITY OF TOKYO: KIMIHIKO HIRAO, TAKAHITO NAKAJIMA,
          TAKAO TSUNEDA, MUNEAKI KAMIYA, SUSUMU YANAGISAWA,
          KIYOSHI YAGI, MAHITO CHIBA, SEIKEN TOKURA, NAOAKI KAWAKAMI
     UNIVERSITY OF AARHUS: FRANK JENSEN
     UNIVERSITY OF IOWA: VISVALDAS KAIRYS, HUI LI
     NATIONAL INST. OF STANDARDS AND TECHNOLOGY: WALT STEVENS, DAVID GARMER
     UNIVERSITY OF PISA: BENEDETTA MENNUCCI, JACOPO TOMASI
     UNIVERSITY OF MEMPHIS: HENRY KURTZ, PRAKASHAN KORAMBATH
     UNIVERSITY OF ALBERTA: TOBY ZENG, MARIUSZ KLOBUKOWSKI
     UNIVERSITY OF NEW ENGLAND: MARK SPACKMAN
     MIE UNIVERSITY: HIROAKI UMEDA
     NAT. INST. OF ADVANCED INDUSTRIAL SCIENCE AND TECHNOLOGY: KAZUO KITAURA
     MICHIGAN STATE UNIVERSITY:
          KAROL KOWALSKI, MARTA WLOCH, JEFFREY GOUR, JESSE LUTZ,
          WEI LI, PIOTR PIECUCH
     UNIVERSITY OF SILESIA: MONIKA MUSIAL, STANISLAW KUCHARSKI
     FACULTES UNIVERSITAIRES NOTRE-DAME DE LA PAIX:
          OLIVIER QUINET, BENOIT CHAMPAGNE
     UNIVERSITY OF CALIFORNIA - SANTA BARBARA: BERNARD KIRTMAN
     INSTITUTE FOR MOLECULAR SCIENCE:
          KAZUYA ISHIMURA, MICHIO KATOUDA, AND SHIGERU NAGASE
     UNIVERSITY OF NOTRE DAME: ANNA POMOGAEVA, DAN CHIPMAN
     KYUSHU UNIVERSITY:
          HARUYUKI NAKANO,
          FENG LONG GU, JACEK KORCHOWIEC, MARCIN MAKOWSKI, AND YURIKO AOKI,
          HIROTOSHI MORI AND EISAKU MIYOSHI
     PENNSYLVANIA STATE UNIVERSITY:
          TZVETELIN IORDANOV, CHET SWALINA, JONATHAN SKONE,
          SHARON HAMMES-SCHIFFER
     WASEDA UNIVERSITY:
          MASATO KOBAYASHI, TOMOKO AKAMA, TSUGUKI TOUMA,
          TAKESHI YOSHIKAWA, YASUHIRO IKABATA, JUNJI SEINO,
          YUYA NAKAJIMA, HIROMI NAKAI
     NANJING UNIVERSITY: SHUHUA LI
     UNIVERSITY OF NEBRASKA:
          PEIFENG SU, DEJUN SI, NANDUN THELLAMUREGE, YALI WANG, HUI LI
     UNIVERSITY OF ZURICH: ROBERTO PEVERATI, KIM BALDRIDGE
     N. COPERNICUS UNIVERSITY AND JACKSON STATE UNIVERSITY:
          MARIA BARYSZ
     UNIVERSITY OF COPENHAGEN: Jimmy Kromann, CASPER STEINMANN
     TOKYO INSTITUTE OF TECHNOLOGY: HIROYA NAKATA
     NAGOYA UNIVERSITY: YOSHIO NISHIMOTO, STEPHAN IRLE
     MOSCOW STATE UNIVERSITY: VLADIMIR MIRONOV


 PARALLEL VERSION RUNNING ON       16 PROCESSORS IN        1 NODES.

 EXECUTION OF GAMESS BEGUN Mon Apr 17 23:11:21 2017

            ECHO OF THE FIRST FEW INPUT CARDS -
 INPUT CARD> $contrl coord=unique icharg=0 ispher=1 mult=1 runtyp=energy                    
 INPUT CARD>         scftyp=rhf cityp=cis units=bohr  $end                                  
 INPUT CARD> $basis  gbasis=ccd  $end                                                       
 INPUT CARD> $guess  guess=huckel  $end                                                     
 INPUT CARD> $cis    nstate=5 $end                                                          
 INPUT CARD> $DATA                                                                          
 INPUT CARD>A molecule.                                                                     
 INPUT CARD>C1                                                                              
 INPUT CARD>H 1.00       0.00000000       0.00000000       0.00000000                       
 INPUT CARD>H 1.00       2.600000000       0.00000000       0.00000000                      
 INPUT CARD> $END                                                                           
    1000000 WORDS OF MEMORY AVAILABLE

     BASIS OPTIONS
     -------------
     GBASIS=CCD          IGAUSS=       0      POLAR=NONE    
     NDFUNC=       0     NFFUNC=       0     DIFFSP=       F
     NPFUNC=       0      DIFFS=       F     BASNAM=        


     RUN TITLE
     ---------
 A molecule.                                                                     

 THE POINT GROUP OF THE MOLECULE IS C1      
 THE ORDER OF THE PRINCIPAL AXIS IS     0

 ATOM      ATOMIC                      COORDINATES (BOHR)
           CHARGE         X                   Y                   Z
 H           1.0     0.0000000000        0.0000000000        0.0000000000
 H           1.0     2.6000000000        0.0000000000        0.0000000000

          INTERNUCLEAR DISTANCES (ANGS.)
          ------------------------------

                1 H          2 H     

   1 H       0.0000000    1.3758608 *
   2 H       1.3758608 *  0.0000000  

  * ... LESS THAN  3.000


     ATOMIC BASIS SET
     ----------------
 THE CONTRACTED PRIMITIVE FUNCTIONS HAVE BEEN UNNORMALIZED
 THE CONTRACTED BASIS FUNCTIONS ARE NOW NORMALIZED TO UNITY

  SHELL TYPE  PRIMITIVE        EXPONENT          CONTRACTION COEFFICIENT(S)

 H         

      1   S       1            13.0100000    0.033498726390
      1   S       2             1.9620000    0.234800801174
      1   S       3             0.4446000    0.813682957883

      2   S       4             0.1220000    1.000000000000

      3   P       5             0.7270000    1.000000000000

 H         

      4   S       6            13.0100000    0.033498726390
      4   S       7             1.9620000    0.234800801174
      4   S       8             0.4446000    0.813682957883

      5   S       9             0.1220000    1.000000000000

      6   P      10             0.7270000    1.000000000000

 TOTAL NUMBER OF BASIS SET SHELLS             =    6
 NUMBER OF CARTESIAN GAUSSIAN BASIS FUNCTIONS =   10
 NOTE: THIS RUN WILL RESTRICT THE MO VARIATION SPACE TO SPHERICAL HARMONICS.
 THE NUMBER OF ORBITALS KEPT IN THE VARIATIONAL SPACE WILL BE PRINTED LATER.
 NUMBER OF ELECTRONS                          =    2
 CHARGE OF MOLECULE                           =    0
 SPIN MULTIPLICITY                            =    1
 NUMBER OF OCCUPIED ORBITALS (ALPHA)          =    1
 NUMBER OF OCCUPIED ORBITALS (BETA )          =    1
 TOTAL NUMBER OF ATOMS                        =    2
 THE NUCLEAR REPULSION ENERGY IS        0.3846153846

 THIS MOLECULE IS RECOGNIZED AS BEING LINEAR,
 ORBITAL LZ DEGENERACY TOLERANCE ETOLLZ= 1.00E-06

     $CONTRL OPTIONS
     ---------------
 SCFTYP=RHF          RUNTYP=ENERGY       EXETYP=RUN     
 MPLEVL=       0     CITYP =CIS          CCTYP =NONE         VBTYP =NONE    
 DFTTYP=NONE         TDDFT =NONE    
 MULT  =       1     ICHARG=       0     NZVAR =       0     COORD =UNIQUE  
 PP    =NONE         RELWFN=NONE         LOCAL =NONE         NUMGRD=       F
 ISPHER=       1     NOSYM =       0     MAXIT =      30     UNITS =BOHR    
 PLTORB=       F     MOLPLT=       F     AIMPAC=       F     FRIEND=        
 NPRINT=       7     IREST =       0     GEOM  =INPUT   
 NORMF =       0     NORMP =       0     ITOL  =      20     ICUT  =       9
 INTTYP=BEST         GRDTYP=BEST         QMTTOL= 1.0E-06

     $SYSTEM OPTIONS
     ---------------
  REPLICATED MEMORY=     1000000 WORDS (ON EVERY NODE).
 DISTRIBUTED MEMDDI=           0 MILLION WORDS IN AGGREGATE,
 MEMDDI DISTRIBUTED OVER  16 PROCESSORS IS           0 WORDS/PROCESSOR.
 TOTAL MEMORY REQUESTED ON EACH PROCESSOR=     1000000 WORDS.
 TIMLIM=      525600.00 MINUTES, OR     365.0 DAYS.
 PARALL= T  BALTYP=  DLB     KDIAG=    0  COREFL= F
 MXSEQ2=     300 MXSEQ3=     150  mem10=         0

          ----------------
          PROPERTIES INPUT
          ----------------

     MOMENTS            FIELD           POTENTIAL          DENSITY
 IEMOM =       1   IEFLD =       0   IEPOT =       0   IEDEN =       0
 WHERE =COMASS     WHERE =NUCLEI     WHERE =NUCLEI     WHERE =NUCLEI  
 OUTPUT=BOTH       OUTPUT=BOTH       OUTPUT=BOTH       OUTPUT=BOTH    
 IEMINT=       0   IEFINT=       0                     IEDINT=       0
                                                       MORB  =       0
          EXTRAPOLATION IN EFFECT
          SOSCF IN EFFECT
 ORBITAL PRINTING OPTION: NPREO=     1    10     2     1

     -------------------------------
     INTEGRAL TRANSFORMATION OPTIONS
     -------------------------------
     NWORD  =            0
     CUTOFF = 1.0E-09     MPTRAN =       0
     DIRTRF =       F     AOINTS =DUP     

          ----------------------
          INTEGRAL INPUT OPTIONS
          ----------------------
 NOPK  =       1 NORDER=       0 SCHWRZ=       F

     ------------------------------
     CI-SINGLES CONTROL INFORMATION
     ------------------------------
     NACORE =        0  NBCORE   =        0
     NSTATE =        5  IROOT    =        1
     HAMTYP = SAPS      SAP MULT =        1
     DIAGZN = DAVID     MXVEC    =       40
     NDAVIT =       50  DAVCVG   = 1.00E-05
     CISPRP =        F  NGSVEC   =       10
     MNMEDG =        F  MNMEOP   =        F
     CHFSLV = CONJG     RDCISV   =        F
     DGAPRX =        T

     NUMBER OF CORE -A-  ORBITALS =     0
     NUMBER OF CORE -B-  ORBITALS =     0
     NUMBER OF OCC. -A-  ORBITALS =     1
     NUMBER OF OCC. -B-  ORBITALS =     1
     NUMBER OF MOLECULAR ORBITALS =    10
     NUMBER OF   BASIS  FUNCTIONS =    10


     ------------------------------------------
     THE POINT GROUP IS C1 , NAXIS= 0, ORDER= 1
     ------------------------------------------

 -- VARIATIONAL SPACE WILL BE RESTRICTED TO PURE SPHERICAL HARMONICS ONLY --
 AFTER EXCLUDING CONTAMINANT COMBINATIONS FROM THE CARTESIAN GAUSSIAN BASIS
 SET, THE NUMBER OF SPHERICAL HARMONICS KEPT IN THE VARIATION SPACE IS   10

     DIMENSIONS OF THE SYMMETRY SUBSPACES ARE
 A   =   10

 ..... DONE SETTING UP THE RUN .....
 CPU     0: STEP CPU TIME=     0.01 TOTAL CPU TIME=        0.0 (    0.0 MIN)
 TOTAL WALL CLOCK TIME=        0.0 SECONDS, CPU UTILIZATION IS  33.33%

          ********************
          1 ELECTRON INTEGRALS
          ********************
 ...... END OF ONE-ELECTRON INTEGRALS ......
 CPU     0: STEP CPU TIME=     0.00 TOTAL CPU TIME=        0.0 (    0.0 MIN)
 TOTAL WALL CLOCK TIME=        0.1 SECONDS, CPU UTILIZATION IS  11.11%

          -------------
          GUESS OPTIONS
          -------------
          GUESS =HUCKEL            NORB  =       0          NORDER=       0
          MIX   =       F          PRTMO =       F          PUNMO =       F
          TOLZ  = 1.0E-08          TOLE  = 1.0E-05
          SYMDEN=       F          PURIFY=       F

 INITIAL GUESS ORBITALS GENERATED BY HUCKEL   ROUTINE.
 HUCKEL GUESS REQUIRES      2162 WORDS.

 SYMMETRIES FOR INITIAL GUESS ORBITALS FOLLOW.   BOTH SET(S).
     1 ORBITALS ARE OCCUPIED (    0 CORE ORBITALS).
     1=A        2=A        3=A        4=A        5=A        6=A        7=A   
     8=A        9=A       10=A   
 ...... END OF INITIAL ORBITAL SELECTION ......
 CPU     0: STEP CPU TIME=     0.00 TOTAL CPU TIME=        0.0 (    0.0 MIN)
 TOTAL WALL CLOCK TIME=        0.1 SECONDS, CPU UTILIZATION IS   8.33%

                    ----------------------
                    AO INTEGRAL TECHNOLOGY
                    ----------------------
     S,P,L SHELL ROTATED AXIS INTEGRALS, REPROGRAMMED BY
        KAZUYA ISHIMURA (IMS) AND JOSE SIERRA (SYNSTAR).
     S,P,D,L SHELL ROTATED AXIS INTEGRALS PROGRAMMED BY
        KAZUYA ISHIMURA (INSTITUTE FOR MOLECULAR SCIENCE).
     S,P,D,F,G SHELL TO TOTAL QUARTET ANGULAR MOMENTUM SUM 5,
        ERIC PROGRAM BY GRAHAM FLETCHER (ELORET AND NASA ADVANCED
        SUPERCOMPUTING DIVISION, AMES RESEARCH CENTER).
     S,P,D,F,G,L SHELL GENERAL RYS QUADRATURE PROGRAMMED BY
        MICHEL DUPUIS (PACIFIC NORTHWEST NATIONAL LABORATORY).

          --------------------
          2 ELECTRON INTEGRALS
          --------------------

 THE -PK- OPTION IS OFF, THE INTEGRALS ARE NOT IN SUPERMATRIX FORM.
 STORING   15000 INTEGRALS/RECORD ON DISK, USING 12 BYTES/INTEGRAL.
 TWO ELECTRON INTEGRAL EVALUATION REQUIRES   89377 WORDS OF MEMORY.
 II,JST,KST,LST =  1  1  1  1 NREC =         1 INTLOC =    1
 II,JST,KST,LST =  2  1  1  1 NREC =         1 INTLOC =    2
 II,JST,KST,LST =  3  1  1  1 NREC =         1 INTLOC =    7
 II,JST,KST,LST =  4  1  1  1 NREC =         1 INTLOC =   34
 II,JST,KST,LST =  5  1  1  1 NREC =         1 INTLOC =   58
 II,JST,KST,LST =  6  1  1  1 NREC =         1 INTLOC =  117
 TOTAL NUMBER OF NONZERO TWO-ELECTRON INTEGRALS =                 512
         16 INTEGRAL RECORDS WERE STORED ON DISK FILE  8.
  ...... END OF TWO-ELECTRON INTEGRALS .....
 CPU     0: STEP CPU TIME=     0.02 TOTAL CPU TIME=        0.0 (    0.0 MIN)
 TOTAL WALL CLOCK TIME=        0.2 SECONDS, CPU UTILIZATION IS  13.04%

          --------------------------
                 RHF SCF CALCULATION
          --------------------------

     NUCLEAR ENERGY =         0.3846153846
     MAXIT =   30     NPUNCH=    2
     EXTRAP=T  DAMP=F  SHIFT=F  RSTRCT=F  DIIS=F  DEM=F  SOSCF=T
     DENSITY MATRIX CONV=  1.00E-06
     SOSCF WILL OPTIMIZE       9 ORBITAL ROTATIONS, SOGTOL=   0.250
     MEMORY REQUIRED FOR RHF ITERS=     30876 WORDS.

 ITER EX DEM     TOTAL ENERGY        E CHANGE  DENSITY CHANGE     ORB. GRAD
   1  0  0       -0.9527289304    -0.9527289304   0.252950740   0.000000000
          ---------------START SECOND ORDER SCF---------------
   2  1  0       -1.0230173880    -0.0702884576   0.043124583   0.032100657
   3  2  0       -1.0258127859    -0.0027953979   0.008768014   0.005486015
   4  3  0       -1.0259035688    -0.0000907829   0.000051740   0.000118952
   5  4  0       -1.0259035963    -0.0000000276   0.000006279   0.000019928
   6  5  0       -1.0259035970    -0.0000000007   0.000000000   0.000000009

          -----------------
          DENSITY CONVERGED
          -----------------
     TIME TO FORM FOCK OPERATORS=       0.0 SECONDS (       0.0 SEC/ITER)
     TIME TO SOLVE SCF EQUATIONS=       0.0 SECONDS (       0.0 SEC/ITER)

 FINAL RHF ENERGY IS       -1.0259035970 AFTER   6 ITERATIONS

 LZ VALUE ANALYSIS FOR THE MOS
 ----------------------------------------
 MO     1 (    1) HAS LZ(WEIGHT)= 0.00(100.0%) 
 MO     2 (    2) HAS LZ(WEIGHT)= 0.00(100.0%) 
 MO     3 (    3) HAS LZ(WEIGHT)= 0.00(100.0%) 
 MO     4 (    4) HAS LZ(WEIGHT)= 0.00(100.0%) 
 MO     5 (    5) HAS LZ(WEIGHT)= 0.00(100.0%) 
 MO     6 (    6) HAS LZ(WEIGHT)= 0.00(100.0%) 
 MO     7 (    6) HAS LZ(WEIGHT)= 0.00(100.0%) 
 MO     8 (    7) HAS LZ(WEIGHT)= 0.00(100.0%) 
 MO     9 (    7) HAS LZ(WEIGHT)= 0.00(100.0%) 
 MO    10 (    8) HAS LZ(WEIGHT)= 0.00(100.0%) 

          ------------
          EIGENVECTORS
          ------------

                      1          2          3          4          5
                   -0.4566     0.0640     0.6197     0.6928     1.3354
                     A          A          A          A          A   
    1  H  1  S    0.340892   0.267148   0.877496  -0.951115   0.296107
    2  H  1  S    0.297479   0.902598  -0.754065   1.295952  -0.133324
    3  H  1  X    0.021715  -0.012450   0.109052   0.064755  -0.611695
    4  H  1  Y    0.000000   0.000000   0.000000   0.000000   0.000000
    5  H  1  Z    0.000000   0.000000   0.000000   0.000000   0.000000
    6  H  2  S    0.340892  -0.267148   0.877496   0.951115   0.296107
    7  H  2  S    0.297479  -0.902598  -0.754065  -1.295952  -0.133324
    8  H  2  X   -0.021715  -0.012450  -0.109052   0.064755   0.611695
    9  H  2  Y    0.000000   0.000000   0.000000   0.000000   0.000000
   10  H  2  Z    0.000000   0.000000   0.000000   0.000000   0.000000

                      6          7          8          9         10
                    1.3544     1.3544     1.6674     1.6674     2.2640
                     A          A          A          A          A   
    1  H  1  S    0.000000   0.000000   0.000000   0.000000   0.143234
    2  H  1  S    0.000000   0.000000   0.000000   0.000000   0.367665
    3  H  1  X    0.000000   0.000000   0.000000   0.000000   0.942179
    4  H  1  Y   -0.227527   0.639356  -0.576945   0.462583   0.000000
    5  H  1  Z    0.639356   0.227527   0.462583   0.576945   0.000000
    6  H  2  S    0.000000   0.000000   0.000000   0.000000  -0.143234
    7  H  2  S    0.000000   0.000000   0.000000   0.000000  -0.367665
    8  H  2  X    0.000000   0.000000   0.000000   0.000000   0.942179
    9  H  2  Y   -0.227527   0.639356   0.576945  -0.462583   0.000000
   10  H  2  Z    0.639356   0.227527  -0.462583  -0.576945   0.000000
 ...... END OF RHF CALCULATION ......
 CPU     0: STEP CPU TIME=     0.00 TOTAL CPU TIME=        0.0 (    0.0 MIN)
 TOTAL WALL CLOCK TIME=        0.7 SECONDS, CPU UTILIZATION IS   4.35%

     ----------------------------------------------------------------
     PROPERTY VALUES FOR THE RHF   SELF-CONSISTENT FIELD WAVEFUNCTION
     ----------------------------------------------------------------

          -----------------
          ENERGY COMPONENTS
          -----------------

         WAVEFUNCTION NORMALIZATION =       1.0000000000

                ONE ELECTRON ENERGY =      -1.9078820731
                TWO ELECTRON ENERGY =       0.4973630915
           NUCLEAR REPULSION ENERGY =       0.3846153846
                                      ------------------
                       TOTAL ENERGY =      -1.0259035970

 ELECTRON-ELECTRON POTENTIAL ENERGY =       0.4973630915
  NUCLEUS-ELECTRON POTENTIAL ENERGY =      -2.6670965431
   NUCLEUS-NUCLEUS POTENTIAL ENERGY =       0.3846153846
                                      ------------------
             TOTAL POTENTIAL ENERGY =      -1.7851180670
               TOTAL KINETIC ENERGY =       0.7592144700
                 VIRIAL RATIO (V/T) =       2.3512698158

  ...... PI ENERGY ANALYSIS ......

 ENERGY ANALYSIS:
            FOCK ENERGY=     -0.9131558872
          BARE H ENERGY=     -1.9078820731
     ELECTRONIC ENERGY =     -1.4105189801
         KINETIC ENERGY=      0.7592144700
          N-N REPULSION=      0.3846153846
           TOTAL ENERGY=     -1.0259035955
        SIGMA PART(1+2)=     -1.4105189801
               (K,V1,2)=      0.7592144700     -2.6670965431      0.4973630930
           PI PART(1+2)=      0.0000000000
               (K,V1,2)=      0.0000000000      0.0000000000      0.0000000000
  SIGMA SKELETON, ERROR=     -1.0259035955     -0.0000000000
             MIXED PART= 0.00000E+00 0.00000E+00 0.00000E+00 0.00000E+00
 ...... END OF PI ENERGY ANALYSIS ......

          ---------------------------------------
          MULLIKEN AND LOWDIN POPULATION ANALYSES
          ---------------------------------------

               ----- POPULATIONS IN EACH AO -----
                             MULLIKEN      LOWDIN
              1  H  1  S      0.48593     0.44849
              2  H  1  S      0.50716     0.54061
              3  H  1  X      0.00691     0.01090
              4  H  1  Y      0.00000     0.00000
              5  H  1  Z      0.00000     0.00000
              6  H  2  S      0.48593     0.44849
              7  H  2  S      0.50716     0.54061
              8  H  2  X      0.00691     0.01090
              9  H  2  Y      0.00000     0.00000
             10  H  2  Z      0.00000     0.00000

          ----- MULLIKEN ATOMIC OVERLAP POPULATIONS -----
          (OFF-DIAGONAL ELEMENTS NEED TO BE MULTIPLIED BY 2)

             1           2

    1    0.6881463
    2    0.3118537   0.6881463

          TOTAL MULLIKEN AND LOWDIN ATOMIC POPULATIONS
       ATOM         MULL.POP.    CHARGE          LOW.POP.     CHARGE
    1 H             1.000000   -0.000000         1.000000   -0.000000
    2 H             1.000000    0.000000         1.000000    0.000000

          MULLIKEN SPHERICAL HARMONIC POPULATIONS
       ATOM           S       P       D      F      G      H      I    TOTAL
    1 H             0.99    0.01    0.00   0.00   0.00   0.00   0.00    1.00
    2 H             0.99    0.01    0.00   0.00   0.00   0.00   0.00    1.00

          ---------------------
          ELECTROSTATIC MOMENTS
          ---------------------

 POINT   1           X           Y           Z (BOHR)    CHARGE
                 1.300000    0.000000    0.000000        0.00 (A.U.)
         DX          DY          DZ         /D/  (DEBYE)
     0.000000    0.000000    0.000000    0.000000
 ...... END OF PROPERTY EVALUATION ......
 CPU     0: STEP CPU TIME=     0.01 TOTAL CPU TIME=        0.0 (    0.0 MIN)
 TOTAL WALL CLOCK TIME=        0.8 SECONDS, CPU UTILIZATION IS   4.94%

 MXVEC CANNOT BE BIGGER THAN THE NUMBER OF CIS CONFIGS
 SETTING MXVEC = NCFG


          ---------------------------------------------
             ATOMIC ORBITAL BASIS CI-SINGLES ENERGY
             PROGRAM WRITTEN BY SIMON P. WEBB
          ---------------------------------------------

 # CORE ORBITALS      =    0
 # OCCUPIED ORBITALS  =    1
 # MOLECULAR ORBITALS =   10
 # BASIS FUNCTIONS    =   10

 NUMBER OF CIS SPIN-ADAPTED ANTISYMMETRIZED PRODUCTS (SAPS) IS       9

 APPROXIMATING CIS HAMILTONIAN DIAGONAL ELEMENTS USING ONLY ORBITAL ENERGIES

 -CIS- HAM. DIAGONAL ELEMENTS  TOOK      0.000 SECONDS

 MIN MEMORY REQ. FOR CIS ENERGY FOCK-LIKE BUILDS =       200 WORDS
 MEMORY REQ. FOR SINGLE BATCH BUILDS             =      1800 WORDS
 MEMORY AVAILABLE                                =    968641 WORDS

 SINGLE BATCH ENERGY CALCULATION WILL BE PERFORMED

 UNIT VECTOR GUESS AT CIS COEFFICIENTS ...

 USING IN MEMORY DIAGONALIZTION TO FIND CIS EIGENVALUES AND EIGENVECTORS ...

 STATE    1 ENERGY=       -0.6831122662
 STATE    2 ENERGY=       -0.2207912076
 STATE    3 ENERGY=       -0.1526591280
 STATE    4 ENERGY=        0.4000464958
 STATE    5 ENERGY=        0.4342961056


        --------------------------------------------------------
        RESULTS FROM SPIN-ADAPTED ANTISYMMETRIZED PRODUCT (SAPS)
        BASED ATOMIC ORBITAL CI-SINGLES ENERGY CALCULATION
        --------------------------------------------------------

 PRINTING CIS COEFFICIENTS LARGER THAN  0.050000

 RHF REFERENCE ENERGY  =        -1.0259035970


 EXCITED STATE   1  ENERGY=        -0.6831122662  S = 0.0  SPACE SYM = A   

          ----------------------------------------------
          SINGLE EXCITATION               SAP COEFFICENT
          FROM MO     TO MO
          ----------------------------------------------
             1          2                   0.99876015
          ----------------------------------------------


 EXCITED STATE   2  ENERGY=        -0.2207912076  S = 0.0  SPACE SYM = A   

          ----------------------------------------------
          SINGLE EXCITATION               SAP COEFFICENT
          FROM MO     TO MO
          ----------------------------------------------
             1          3                  -0.99984373
          ----------------------------------------------


 EXCITED STATE   3  ENERGY=        -0.1526591280  S = 0.0  SPACE SYM = A   

          ----------------------------------------------
          SINGLE EXCITATION               SAP COEFFICENT
          FROM MO     TO MO
          ----------------------------------------------
             1          4                  -0.99866497
          ----------------------------------------------


 EXCITED STATE   4  ENERGY=         0.4000464958  S = 0.0  SPACE SYM = A   

          ----------------------------------------------
          SINGLE EXCITATION               SAP COEFFICENT
          FROM MO     TO MO
          ----------------------------------------------
             1          5                   0.99984373
          ----------------------------------------------


 EXCITED STATE   5  ENERGY=         0.4342961056  S = 0.0  SPACE SYM = A   

          ----------------------------------------------
          SINGLE EXCITATION               SAP COEFFICENT
          FROM MO     TO MO
          ----------------------------------------------
             1          6                   0.99927521
          ----------------------------------------------

  ---------------------------------------------------------------------
                    CI-SINGLES EXCITATION ENERGIES
  STATE       HARTREE        EV      KCAL/MOL       CM-1         NM
  ---------------------------------------------------------------------
   1A     0.3427913308     9.3278    215.1048      75234.00     132.92
   1A     0.8051123894    21.9082    505.2157     176701.74      56.59
   1A     0.8732444690    23.7622    547.9693     191655.01      52.18
   1A     1.4259500928    38.8021    894.7973     312959.87      31.95
   1A     1.4601997026    39.7341    916.2893     320476.79      31.20

 -CIS- ENERGY                  TOOK      0.010 SECONDS

  ---------------------------------------------------------------------
                    CIS TRANSITION DIPOLE MOMENTS AND
                    EXPECTATION VALUES OF DIPOLE MOMENTS
  ---------------------------------------------------------------------

 GROUND STATE (SCF) DIPOLE=     0.000000     0.000000     0.000000 DEBYE

 TRANSITION FROM THE GROUND STATE TO EXCITED STATE  1

 STATE MULTIPLICITIES =   1  1
 STATE ENERGIES =         -1.0259035970       -0.6831122662
 EXCITATION ENERGY =  2.2555E+15 [1/SEC] =    75234.00 [1/CM] =      9.33 [EV]
                            X           Y           Z           NORM
 TRANSITION DIPOLE =   -2.093503    0.000000   -0.000000    2.093503 E*BOHR
 TRANSITION DIPOLE =   -5.321194    0.000000   -0.000000    5.321194 DEBYE
 OSCILLATOR STRENGTH =    1.001580
 EINSTEIN COEFFICIENTS: A=  3.7815E+09 1/SEC; B=  1.7787E+09 SEC/G

 TRANSITION FROM THE GROUND STATE TO EXCITED STATE  2

 STATE MULTIPLICITIES =   1  1
 STATE ENERGIES =         -1.0259035970       -0.2207912076
 EXCITATION ENERGY =  5.2974E+15 [1/SEC] =   176701.74 [1/CM] =     21.91 [EV]
                            X           Y           Z           NORM
 TRANSITION DIPOLE =   -0.000000   -0.000000   -0.000000    0.000000 E*BOHR
 TRANSITION DIPOLE =   -0.000000   -0.000000   -0.000000    0.000000 DEBYE
 OSCILLATOR STRENGTH =    0.000000
 EINSTEIN COEFFICIENTS: A=  3.0608E-20 1/SEC; B=  1.1112E-21 SEC/G

 TRANSITION FROM THE GROUND STATE TO EXCITED STATE  3

 STATE MULTIPLICITIES =   1  1
 STATE ENERGIES =         -1.0259035970       -0.1526591280
 EXCITATION ENERGY =  5.7457E+15 [1/SEC] =   191655.01 [1/CM] =     23.76 [EV]
                            X           Y           Z           NORM
 TRANSITION DIPOLE =   -0.121299   -0.000000   -0.000000    0.121299 E*BOHR
 TRANSITION DIPOLE =   -0.308314   -0.000000   -0.000000    0.308314 DEBYE
 OSCILLATOR STRENGTH =    0.008566
 EINSTEIN COEFFICIENTS: A=  2.0987E+08 1/SEC; B=  5.9713E+06 SEC/G

 TRANSITION FROM THE GROUND STATE TO EXCITED STATE  4

 STATE MULTIPLICITIES =   1  1
 STATE ENERGIES =         -1.0259035970        0.4000464958
 EXCITATION ENERGY =  9.3823E+15 [1/SEC] =   312959.87 [1/CM] =     38.80 [EV]
                            X           Y           Z           NORM
 TRANSITION DIPOLE =   -0.000000    0.000000    0.000000    0.000000 E*BOHR
 TRANSITION DIPOLE =   -0.000000    0.000000    0.000000    0.000000 DEBYE
 OSCILLATOR STRENGTH =    0.000000
 EINSTEIN COEFFICIENTS: A=  5.6986E-19 1/SEC; B=  3.7238E-21 SEC/G

 TRANSITION FROM THE GROUND STATE TO EXCITED STATE  5

 STATE MULTIPLICITIES =   1  1
 STATE ENERGIES =         -1.0259035970        0.4342961056
 EXCITATION ENERGY =  9.6077E+15 [1/SEC] =   320476.79 [1/CM] =     39.73 [EV]
                            X           Y           Z           NORM
 TRANSITION DIPOLE =    0.000000   -0.362769    0.908335    0.978097 E*BOHR
 TRANSITION DIPOLE =    0.000000   -0.922074    2.308776    2.486094 DEBYE
 OSCILLATOR STRENGTH =    0.931290
 EINSTEIN COEFFICIENTS: A=  6.3801E+10 1/SEC; B=  3.8826E+08 SEC/G

 EXPECTATION VALUE DIPOLE MOMENT FOR EXCITED STATE  1

 STATE MULTIPLICITY =   1
 STATE ENERGY =         -0.6831122662
                            X           Y           Z           NORM
      STATE DIPOLE =   -0.000000   -0.000000    0.000000    0.000000 E*BOHR
      STATE DIPOLE =   -0.000000   -0.000000    0.000000    0.000000 DEBYE

 TRANSITION BETWEEN EXCITED STATES   1 AND  2

 STATE MULTIPLICITIES=  1  1
 STATE ENERGIES =         -0.6831122662       -0.2207912076
 TRANSITION ENERGY =  3.0419E+15 [1/SEC] =   101467.74 [1/CM] =       12.58 [EV]
                            X           Y           Z           NORM
 TRANSITION DIPOLE =   -0.852895   -0.000000   -0.000000    0.852895 E*BOHR
 TRANSITION DIPOLE =   -2.167858   -0.000000   -0.000000    2.167858 DEBYE
 OSCILLATOR STRENGTH =    0.224204
 EINSTEIN COEFFICIENTS: A=  1.5397E+09 1/SEC; B=  2.9522E+08 SEC/G

 TRANSITION BETWEEN EXCITED STATES   1 AND  3

 STATE MULTIPLICITIES=  1  1
 STATE ENERGIES =         -0.6831122662       -0.1526591280
 TRANSITION ENERGY =  3.4902E+15 [1/SEC] =   116421.01 [1/CM] =       14.43 [EV]
                            X           Y           Z           NORM
 TRANSITION DIPOLE =    0.000000    0.000000    0.000000    0.000000 E*BOHR
 TRANSITION DIPOLE =    0.000000    0.000000    0.000000    0.000000 DEBYE
 OSCILLATOR STRENGTH =    0.000000
 EINSTEIN COEFFICIENTS: A=  1.6176E-20 1/SEC; B=  2.0533E-21 SEC/G

 TRANSITION BETWEEN EXCITED STATES   1 AND  4

 STATE MULTIPLICITIES=  1  1
 STATE ENERGIES =         -0.6831122662        0.4000464958
 TRANSITION ENERGY =  7.1268E+15 [1/SEC] =   237725.87 [1/CM] =       29.47 [EV]
                            X           Y           Z           NORM
 TRANSITION DIPOLE =   -0.861758    0.000000    0.000000    0.861758 E*BOHR
 TRANSITION DIPOLE =   -2.190386    0.000000    0.000000    2.190386 DEBYE
 OSCILLATOR STRENGTH =    0.536255
 EINSTEIN COEFFICIENTS: A=  2.0215E+10 1/SEC; B=  3.0139E+08 SEC/G

 TRANSITION BETWEEN EXCITED STATES   1 AND  5

 STATE MULTIPLICITIES=  1  1
 STATE ENERGIES =         -0.6831122662        0.4342961056
 TRANSITION ENERGY =  7.3522E+15 [1/SEC] =   245242.79 [1/CM] =       30.41 [EV]
                            X           Y           Z           NORM
 TRANSITION DIPOLE =    0.000000    0.000000   -0.000000    0.000000 E*BOHR
 TRANSITION DIPOLE =    0.000000    0.000000   -0.000000    0.000000 DEBYE
 OSCILLATOR STRENGTH =    0.000000
 EINSTEIN COEFFICIENTS: A=  4.5010E-20 1/SEC; B=  6.1123E-22 SEC/G

 EXPECTATION VALUE DIPOLE MOMENT FOR EXCITED STATE  2

 STATE MULTIPLICITY =   1
 STATE ENERGY =         -0.2207912076
                            X           Y           Z           NORM
      STATE DIPOLE =   -0.000000    0.000000    0.000000    0.000000 E*BOHR
      STATE DIPOLE =   -0.000000    0.000000    0.000000    0.000000 DEBYE

 TRANSITION BETWEEN EXCITED STATES   2 AND  3

 STATE MULTIPLICITIES=  1  1
 STATE ENERGIES =         -0.2207912076       -0.1526591280
 TRANSITION ENERGY =  4.4829E+14 [1/SEC] =    14953.26 [1/CM] =        1.85 [EV]
                            X           Y           Z           NORM
 TRANSITION DIPOLE =    1.604392   -0.000000   -0.000000    1.604392 E*BOHR
 TRANSITION DIPOLE =    4.077990   -0.000000   -0.000000    4.077990 DEBYE
 OSCILLATOR STRENGTH =    0.116918
 EINSTEIN COEFFICIENTS: A=  1.7438E+07 1/SEC; B=  1.0447E+09 SEC/G

 TRANSITION BETWEEN EXCITED STATES   2 AND  4

 STATE MULTIPLICITIES=  1  1
 STATE ENERGIES =         -0.2207912076        0.4000464958
 TRANSITION ENERGY =  4.0849E+15 [1/SEC] =   136258.13 [1/CM] =       16.89 [EV]
                            X           Y           Z           NORM
 TRANSITION DIPOLE =   -0.000000    0.000000    0.000000    0.000000 E*BOHR
 TRANSITION DIPOLE =   -0.000000    0.000000    0.000000    0.000000 DEBYE
 OSCILLATOR STRENGTH =    0.000000
 EINSTEIN COEFFICIENTS: A=  7.0395E-20 1/SEC; B=  5.5736E-21 SEC/G

 TRANSITION BETWEEN EXCITED STATES   2 AND  5

 STATE MULTIPLICITIES=  1  1
 STATE ENERGIES =         -0.2207912076        0.4342961056
 TRANSITION ENERGY =  4.3103E+15 [1/SEC] =   143775.05 [1/CM] =       17.83 [EV]
                            X           Y           Z           NORM
 TRANSITION DIPOLE =    0.000000   -0.010808    0.027063    0.029141 E*BOHR
 TRANSITION DIPOLE =    0.000000   -0.027472    0.068788    0.074071 DEBYE
 OSCILLATOR STRENGTH =    0.000371
 EINSTEIN COEFFICIENTS: A=  5.1138E+06 1/SEC; B=  3.4465E+05 SEC/G

 EXPECTATION VALUE DIPOLE MOMENT FOR EXCITED STATE  3

 STATE MULTIPLICITY =   1
 STATE ENERGY =         -0.1526591280
                            X           Y           Z           NORM
      STATE DIPOLE =    0.000000   -0.000000   -0.000000    0.000000 E*BOHR
      STATE DIPOLE =    0.000000   -0.000000   -0.000000    0.000000 DEBYE

 TRANSITION BETWEEN EXCITED STATES   3 AND  4

 STATE MULTIPLICITIES=  1  1
 STATE ENERGIES =         -0.1526591280        0.4000464958
 TRANSITION ENERGY =  3.6366E+15 [1/SEC] =   121304.86 [1/CM] =       15.04 [EV]
                            X           Y           Z           NORM
 TRANSITION DIPOLE =   -0.470912    0.000000    0.000000    0.470912 E*BOHR
 TRANSITION DIPOLE =   -1.196948    0.000000    0.000000    1.196948 DEBYE
 OSCILLATOR STRENGTH =    0.081711
 EINSTEIN COEFFICIENTS: A=  8.0202E+08 1/SEC; B=  8.9999E+07 SEC/G

 TRANSITION BETWEEN EXCITED STATES   3 AND  5

 STATE MULTIPLICITIES=  1  1
 STATE ENERGIES =         -0.1526591280        0.4342961056
 TRANSITION ENERGY =  3.8620E+15 [1/SEC] =   128821.78 [1/CM] =       15.97 [EV]
                            X           Y           Z           NORM
 TRANSITION DIPOLE =   -0.000000   -0.000000    0.000000    0.000000 E*BOHR
 TRANSITION DIPOLE =   -0.000000   -0.000000    0.000000    0.000000 DEBYE
 OSCILLATOR STRENGTH =    0.000000
 EINSTEIN COEFFICIENTS: A=  3.0360E-21 1/SEC; B=  2.8446E-22 SEC/G

 EXPECTATION VALUE DIPOLE MOMENT FOR EXCITED STATE  4

 STATE MULTIPLICITY =   1
 STATE ENERGY =          0.4000464958
                            X           Y           Z           NORM
      STATE DIPOLE =    0.000000   -0.000000   -0.000000    0.000000 E*BOHR
      STATE DIPOLE =    0.000000   -0.000000   -0.000000    0.000000 DEBYE

 TRANSITION BETWEEN EXCITED STATES   4 AND  5

 STATE MULTIPLICITIES=  1  1
 STATE ENERGIES =          0.4000464958        0.4342961056
 TRANSITION ENERGY =  2.2535E+14 [1/SEC] =     7516.92 [1/CM] =        0.93 [EV]
                            X           Y           Z           NORM
 TRANSITION DIPOLE =   -0.000000   -0.013853    0.034686    0.037349 E*BOHR
 TRANSITION DIPOLE =   -0.000000   -0.035210    0.088163    0.094934 DEBYE
 OSCILLATOR STRENGTH =    0.000032
 EINSTEIN COEFFICIENTS: A=  1.2005E+03 1/SEC; B=  5.6614E+05 SEC/G

 EXPECTATION VALUE DIPOLE MOMENT FOR EXCITED STATE  5

 STATE MULTIPLICITY =   1
 STATE ENERGY =          0.4342961056
                            X           Y           Z           NORM
      STATE DIPOLE =   -0.000000   -0.000000    0.000000    0.000000 E*BOHR
      STATE DIPOLE =   -0.000000   -0.000000    0.000000    0.000000 DEBYE

 CIS NATURAL ORBITAL OCCUPATION NUMBERS FOR EXCITED STATE    1 ARE
  1.0000 1.0000 0.0000 0.0000 0.0000 0.0000 0.0000-0.0000-0.0000-0.0000
 THERE ARE     1.0000 ELECTRONS IN PRINCIPAL CIS NATURAL ORBITALS.
 THERE ARE     1.0000 ELECTRONS IN SECONDARY CIS NATURAL ORBITALS.

          --------------------
          CIS NATURAL ORBITALS
          --------------------

                      1          2          3          4          5

                    1.0000     1.0000     0.0000     0.0000     0.0000

    1  H  1  S   -0.219648  -0.340892   0.785214   0.000000   0.000000
    2  H  1  S   -0.966401  -0.297479  -0.702781   0.000000   0.000000
    3  H  1  X    0.008120  -0.021715   0.247576   0.000000   0.000000
    4  H  1  Y    0.000000   0.000000   0.000000  -0.639356  -0.576945
    5  H  1  Z    0.000000   0.000000   0.000000  -0.227527   0.462583
    6  H  2  S    0.219648  -0.340892   0.785214   0.000000   0.000000
    7  H  2  S    0.966401  -0.297479  -0.702781   0.000000   0.000000
    8  H  2  X    0.008120   0.021715  -0.247576   0.000000   0.000000
    9  H  2  Y    0.000000   0.000000   0.000000  -0.639356   0.576945
   10  H  2  Z    0.000000   0.000000   0.000000  -0.227527  -0.462583

                      6          7          8          9         10

                    0.0000     0.0000    -0.0000    -0.0000    -0.0000

    1  H  1  S    0.000000   0.681436   0.491037  -0.280663  -0.636500
    2  H  1  S    0.000000  -0.497182  -0.304119   0.204774   1.185874
    3  H  1  X    0.000000   0.620672  -0.569885  -0.255636   0.664379
    4  H  1  Y   -0.462583  -0.086650   0.000000  -0.210382  -0.000000
    5  H  1  Z   -0.576945   0.243488   0.000000   0.591177   0.000000
    6  H  2  S    0.000000  -0.681436   0.491037   0.280663   0.636500
    7  H  2  S    0.000000   0.497182  -0.304119  -0.204774  -1.185874
    8  H  2  X    0.000000   0.620672   0.569885  -0.255636   0.664379
    9  H  2  Y    0.462583  -0.086650   0.000000  -0.210382  -0.000000
   10  H  2  Z    0.576945   0.243488   0.000000   0.591177   0.000000

 THE CIS NATURAL ORBITALS HAVE BEEN PUNCHED.

 ..... DONE WITH CIS ENERGY .....

 CPU     0: STEP CPU TIME=     0.01 TOTAL CPU TIME=        0.0 (    0.0 MIN)
 TOTAL WALL CLOCK TIME=        1.1 SECONDS, CPU UTILIZATION IS   4.59%

     -------------------------------------------------------------
     CIS   PROPERTIES...FOR THE WAVEFUNCTION OF EXCITED STATE    1
                 USING THE EXPECTATION VALUE DENSITY
     -------------------------------------------------------------

          -----------------
          ENERGY COMPONENTS
          -----------------

         WAVEFUNCTION NORMALIZATION =       1.0000000000

                ONE ELECTRON ENERGY =      -1.5744190805
                TWO ELECTRON ENERGY =       0.5066914296
           NUCLEAR REPULSION ENERGY =       0.3846153846
                                      ------------------
                       TOTAL ENERGY =      -0.6831122662

 ELECTRON-ELECTRON POTENTIAL ENERGY =       0.5066914296
  NUCLEUS-ELECTRON POTENTIAL ENERGY =      -2.3514366967
   NUCLEUS-NUCLEUS POTENTIAL ENERGY =       0.3846153846
                                      ------------------
             TOTAL POTENTIAL ENERGY =      -1.4601298824
               TOTAL KINETIC ENERGY =       0.7770176162
                 VIRIAL RATIO (V/T) =       1.8791464337

          ---------------------------------------
          MULLIKEN AND LOWDIN POPULATION ANALYSES
          ---------------------------------------

               ----- POPULATIONS IN EACH AO -----
                             MULLIKEN      LOWDIN
              1  H  1  S      0.35371     0.39464
              2  H  1  S      0.64095     0.57801
              3  H  1  X      0.00535     0.02734
              4  H  1  Y      0.00000     0.00000
              5  H  1  Z      0.00000     0.00000
              6  H  2  S      0.35371     0.39464
              7  H  2  S      0.64095     0.57801
              8  H  2  X      0.00535     0.02734
              9  H  2  Y      0.00000     0.00000
             10  H  2  Z      0.00000     0.00000

          ----- MULLIKEN ATOMIC OVERLAP POPULATIONS -----
          (OFF-DIAGONAL ELEMENTS NEED TO BE MULTIPLIED BY 2)

             1           2

    1    1.6170643
    2   -0.6170643   1.6170643

          TOTAL MULLIKEN AND LOWDIN ATOMIC POPULATIONS
       ATOM         MULL.POP.    CHARGE          LOW.POP.     CHARGE
    1 H             1.000000    0.000000         1.000000   -0.000000
    2 H             1.000000   -0.000000         1.000000   -0.000000

          MULLIKEN SPHERICAL HARMONIC POPULATIONS
       ATOM           S       P       D      F      G      H      I    TOTAL
    1 H             0.99    0.01    0.00   0.00   0.00   0.00   0.00    1.00
    2 H             0.99    0.01    0.00   0.00   0.00   0.00   0.00    1.00

          ---------------------
          ELECTROSTATIC MOMENTS
          ---------------------

 POINT   1           X           Y           Z (BOHR)    CHARGE
                 1.300000    0.000000    0.000000        0.00 (A.U.)
         DX          DY          DZ         /D/  (DEBYE)
    -0.000000   -0.000000    0.000000    0.000000
 ...... END OF PROPERTY EVALUATION ......
 CPU     0: STEP CPU TIME=     0.00 TOTAL CPU TIME=        0.0 (    0.0 MIN)
 TOTAL WALL CLOCK TIME=        1.1 SECONDS, CPU UTILIZATION IS   4.42%
                580000  WORDS OF DYNAMIC MEMORY USED
 EXECUTION OF GAMESS TERMINATED NORMALLY Mon Apr 17 23:11:22 2017
 DDI: 263640 bytes (0.3 MB / 0 MWords) used by master data server.

 ----------------------------------------
 CPU timing information for all processes
 ========================================
 0: 0.23 + 0.34 = 0.57
 1: 0.11 + 0.13 = 0.24
 2: 0.06 + 0.22 = 0.29
 3: 0.09 + 0.16 = 0.26
 4: 0.06 + 0.27 = 0.34
 5: 0.06 + 0.18 = 0.25
 6: 0.07 + 0.22 = 0.30
 7: 0.07 + 0.17 = 0.24
 8: 0.09 + 0.24 = 0.33
 9: 0.07 + 0.16 = 0.23
 10: 0.06 + 0.19 = 0.26
 11: 0.08 + 0.12 = 0.21
 12: 0.06 + 0.23 = 0.29
 13: 0.05 + 0.16 = 0.21
 14: 0.05 + 0.21 = 0.26
 15: 0.06 + 0.12 = 0.19
 ----------------------------------------
 ddikick.x: exited gracefully.
----- accounting info -----
Files used on the master node kylin.physics.illinois.edu were:
-rw-rw-r--. 1 yyang173 yyang173     331 Apr 17 23:11 /scr/yyang173/sep2.60-cis.F05
-rw-rw-r--. 1 yyang173 yyang173  180016 Apr 17 23:11 /scr/yyang173/sep2.60-cis.F08
-rw-rw-r--. 1 yyang173 yyang173  180016 Apr 17 23:11 /scr/yyang173/sep2.60-cis.F08.001
-rw-rw-r--. 1 yyang173 yyang173  180016 Apr 17 23:11 /scr/yyang173/sep2.60-cis.F08.002
-rw-rw-r--. 1 yyang173 yyang173  180016 Apr 17 23:11 /scr/yyang173/sep2.60-cis.F08.003
-rw-rw-r--. 1 yyang173 yyang173  180016 Apr 17 23:11 /scr/yyang173/sep2.60-cis.F08.004
-rw-rw-r--. 1 yyang173 yyang173  180016 Apr 17 23:11 /scr/yyang173/sep2.60-cis.F08.005
-rw-rw-r--. 1 yyang173 yyang173  180016 Apr 17 23:11 /scr/yyang173/sep2.60-cis.F08.006
-rw-rw-r--. 1 yyang173 yyang173  180016 Apr 17 23:11 /scr/yyang173/sep2.60-cis.F08.007
-rw-rw-r--. 1 yyang173 yyang173  180016 Apr 17 23:11 /scr/yyang173/sep2.60-cis.F08.008
-rw-rw-r--. 1 yyang173 yyang173  180016 Apr 17 23:11 /scr/yyang173/sep2.60-cis.F08.009
-rw-rw-r--. 1 yyang173 yyang173  180016 Apr 17 23:11 /scr/yyang173/sep2.60-cis.F08.010
-rw-rw-r--. 1 yyang173 yyang173  180016 Apr 17 23:11 /scr/yyang173/sep2.60-cis.F08.011
-rw-rw-r--. 1 yyang173 yyang173  180016 Apr 17 23:11 /scr/yyang173/sep2.60-cis.F08.012
-rw-rw-r--. 1 yyang173 yyang173  180016 Apr 17 23:11 /scr/yyang173/sep2.60-cis.F08.013
-rw-rw-r--. 1 yyang173 yyang173  180016 Apr 17 23:11 /scr/yyang173/sep2.60-cis.F08.014
-rw-rw-r--. 1 yyang173 yyang173  180016 Apr 17 23:11 /scr/yyang173/sep2.60-cis.F08.015
-rw-rw-r--. 1 yyang173 yyang173 1636000 Apr 17 23:11 /scr/yyang173/sep2.60-cis.F10
-rw-rw-r--. 1 yyang173 yyang173     400 Apr 17 23:11 /scr/yyang173/sep2.60-cis.F12
Mon Apr 17 23:11:25 CDT 2017
0.169u 0.058s 0:04.79 4.3%	0+0k 0+16io 0pf+0w
