----- GAMESS execution script 'rungms' -----
This job is running on host kylin.physics.illinois.edu
under operating system Linux at Wed Apr 12 18:20:22 CDT 2017
Available scratch disk space (Kbyte units) at beginning of the job is
Filesystem                    1K-blocks     Used Available Use% Mounted on
/dev/mapper/fedora_kylin-root 110123880 60480280  44601484  58% /
GAMESS temporary binary files will be written to /scr/yyang173
GAMESS supplementary output files will be written to /home/yyang173/Desktop/attempts/drag-node/hf_grid/cis/sep1.70
Copying input file sep1.70-cis.inp to your run's scratch directory...
 
Assuming a single but multicore node.
 

 Distributed Data Interface kickoff program.
 Initiating 16 compute processes on 1 nodes to run the following command:
 /opt/intel17/apps/gamess_2016R1/gamess.00.x sep1.70-cis 

          ******************************************************
          *         GAMESS VERSION = 18 AUG 2016 (R1)          *
          *             FROM IOWA STATE UNIVERSITY             *
          * M.W.SCHMIDT, K.K.BALDRIDGE, J.A.BOATZ, S.T.ELBERT, *
          *   M.S.GORDON, J.H.JENSEN, S.KOSEKI, N.MATSUNAGA,   *
          *          K.A.NGUYEN, S.J.SU, T.L.WINDUS,           *
          *       TOGETHER WITH M.DUPUIS, J.A.MONTGOMERY       *
          *         J.COMPUT.CHEM.  14, 1347-1363(1993)        *
          **************** 64 BIT INTEL VERSION ****************

  SINCE 1993, STUDENTS AND POSTDOCS WORKING AT IOWA STATE UNIVERSITY
  AND ALSO IN THEIR VARIOUS JOBS AFTER LEAVING ISU HAVE MADE IMPORTANT
  CONTRIBUTIONS TO THE CODE:
     IVANA ADAMOVIC, CHRISTINE AIKENS, YURI ALEXEEV, POOJA ARORA,
     ANDREY ASADCHEV, ROB BELL, PRADIPTA BANDYOPADHYAY, JONATHAN BENTZ,
     BRETT BODE, KURT BRORSEN, CALEB CARLIN, GALINA CHABAN, WEI CHEN,
     CHEOL HO CHOI, PAUL DAY, ALBERT DEFUSCO, NUWAN DESILVA, TIM DUDLEY,
     DMITRI FEDOROV, GRAHAM FLETCHER, MARK FREITAG, KURT GLAESEMANN,
     DAN KEMP, GRANT MERRILL, NORIYUKI MINEZAWA, JONATHAN MULLIN,
     TAKESHI NAGATA, SEAN NEDD, HEATHER NETZLOFF, BOSILJKA NJEGIC, RYAN OLSON,
     MIKE PAK, SPENCER PRUITT, LUKE ROSKOP, JIM SHOEMAKER, LYUDMILA SLIPCHENKO,
     TONY SMITH, SAROM SOK LEANG, JIE SONG, TETSUYA TAKETSUGU, SIMON WEBB,
     PENG XU, SOOHAENG YOO, FEDERICO ZAHARIEV

  ADDITIONAL CODE HAS BEEN PROVIDED BY COLLABORATORS IN OTHER GROUPS:
     IOWA STATE UNIVERSITY:
          JOE IVANIC, AARON WEST, LAIMUTIS BYTAUTAS, KLAUS RUEDENBERG
     UNIVERSITY OF TOKYO: KIMIHIKO HIRAO, TAKAHITO NAKAJIMA,
          TAKAO TSUNEDA, MUNEAKI KAMIYA, SUSUMU YANAGISAWA,
          KIYOSHI YAGI, MAHITO CHIBA, SEIKEN TOKURA, NAOAKI KAWAKAMI
     UNIVERSITY OF AARHUS: FRANK JENSEN
     UNIVERSITY OF IOWA: VISVALDAS KAIRYS, HUI LI
     NATIONAL INST. OF STANDARDS AND TECHNOLOGY: WALT STEVENS, DAVID GARMER
     UNIVERSITY OF PISA: BENEDETTA MENNUCCI, JACOPO TOMASI
     UNIVERSITY OF MEMPHIS: HENRY KURTZ, PRAKASHAN KORAMBATH
     UNIVERSITY OF ALBERTA: TOBY ZENG, MARIUSZ KLOBUKOWSKI
     UNIVERSITY OF NEW ENGLAND: MARK SPACKMAN
     MIE UNIVERSITY: HIROAKI UMEDA
     NAT. INST. OF ADVANCED INDUSTRIAL SCIENCE AND TECHNOLOGY: KAZUO KITAURA
     MICHIGAN STATE UNIVERSITY:
          KAROL KOWALSKI, MARTA WLOCH, JEFFREY GOUR, JESSE LUTZ,
          WEI LI, PIOTR PIECUCH
     UNIVERSITY OF SILESIA: MONIKA MUSIAL, STANISLAW KUCHARSKI
     FACULTES UNIVERSITAIRES NOTRE-DAME DE LA PAIX:
          OLIVIER QUINET, BENOIT CHAMPAGNE
     UNIVERSITY OF CALIFORNIA - SANTA BARBARA: BERNARD KIRTMAN
     INSTITUTE FOR MOLECULAR SCIENCE:
          KAZUYA ISHIMURA, MICHIO KATOUDA, AND SHIGERU NAGASE
     UNIVERSITY OF NOTRE DAME: ANNA POMOGAEVA, DAN CHIPMAN
     KYUSHU UNIVERSITY:
          HARUYUKI NAKANO,
          FENG LONG GU, JACEK KORCHOWIEC, MARCIN MAKOWSKI, AND YURIKO AOKI,
          HIROTOSHI MORI AND EISAKU MIYOSHI
     PENNSYLVANIA STATE UNIVERSITY:
          TZVETELIN IORDANOV, CHET SWALINA, JONATHAN SKONE,
          SHARON HAMMES-SCHIFFER
     WASEDA UNIVERSITY:
          MASATO KOBAYASHI, TOMOKO AKAMA, TSUGUKI TOUMA,
          TAKESHI YOSHIKAWA, YASUHIRO IKABATA, JUNJI SEINO,
          YUYA NAKAJIMA, HIROMI NAKAI
     NANJING UNIVERSITY: SHUHUA LI
     UNIVERSITY OF NEBRASKA:
          PEIFENG SU, DEJUN SI, NANDUN THELLAMUREGE, YALI WANG, HUI LI
     UNIVERSITY OF ZURICH: ROBERTO PEVERATI, KIM BALDRIDGE
     N. COPERNICUS UNIVERSITY AND JACKSON STATE UNIVERSITY:
          MARIA BARYSZ
     UNIVERSITY OF COPENHAGEN: Jimmy Kromann, CASPER STEINMANN
     TOKYO INSTITUTE OF TECHNOLOGY: HIROYA NAKATA
     NAGOYA UNIVERSITY: YOSHIO NISHIMOTO, STEPHAN IRLE
     MOSCOW STATE UNIVERSITY: VLADIMIR MIRONOV


 PARALLEL VERSION RUNNING ON       16 PROCESSORS IN        1 NODES.

 EXECUTION OF GAMESS BEGUN Wed Apr 12 18:20:22 2017

            ECHO OF THE FIRST FEW INPUT CARDS -
 INPUT CARD> $contrl coord=unique icharg=0 ispher=1 mult=1 runtyp=energy                    
 INPUT CARD>         scftyp=rhf cityp=cis units=bohr  $end                                  
 INPUT CARD> $basis  gbasis=cct  $end                                                       
 INPUT CARD> $guess  guess=huckel  $end                                                     
 INPUT CARD> $cis    nstate=5 $end                                                          
 INPUT CARD> $DATA                                                                          
 INPUT CARD>A molecule.                                                                     
 INPUT CARD>C1                                                                              
 INPUT CARD>H 1.00       0.00000000       0.00000000       0.00000000                       
 INPUT CARD>H 1.00       1.700000000       0.00000000       0.00000000                      
 INPUT CARD> $END                                                                           
    1000000 WORDS OF MEMORY AVAILABLE

     BASIS OPTIONS
     -------------
     GBASIS=CCT          IGAUSS=       0      POLAR=NONE    
     NDFUNC=       0     NFFUNC=       0     DIFFSP=       F
     NPFUNC=       0      DIFFS=       F     BASNAM=        


     RUN TITLE
     ---------
 A molecule.                                                                     

 THE POINT GROUP OF THE MOLECULE IS C1      
 THE ORDER OF THE PRINCIPAL AXIS IS     0

 ATOM      ATOMIC                      COORDINATES (BOHR)
           CHARGE         X                   Y                   Z
 H           1.0     0.0000000000        0.0000000000        0.0000000000
 H           1.0     1.7000000000        0.0000000000        0.0000000000

          INTERNUCLEAR DISTANCES (ANGS.)
          ------------------------------

                1 H          2 H     

   1 H       0.0000000    0.8996013 *
   2 H       0.8996013 *  0.0000000  

  * ... LESS THAN  3.000


     ATOMIC BASIS SET
     ----------------
 THE CONTRACTED PRIMITIVE FUNCTIONS HAVE BEEN UNNORMALIZED
 THE CONTRACTED BASIS FUNCTIONS ARE NOW NORMALIZED TO UNITY

  SHELL TYPE  PRIMITIVE        EXPONENT          CONTRACTION COEFFICIENT(S)

 H         

      1   S       1            33.8700000    0.025494863235
      1   S       2             5.0950000    0.190362765893
      1   S       3             1.1590000    0.852162022245

      2   S       4             0.3258000    1.000000000000

      3   S       5             0.1027000    1.000000000000

      4   P       6             1.4070000    1.000000000000

      5   P       7             0.3880000    1.000000000000

      6   D       8             1.0570000    1.000000000000

 H         

      7   S       9            33.8700000    0.025494863235
      7   S      10             5.0950000    0.190362765893
      7   S      11             1.1590000    0.852162022245

      8   S      12             0.3258000    1.000000000000

      9   S      13             0.1027000    1.000000000000

     10   P      14             1.4070000    1.000000000000

     11   P      15             0.3880000    1.000000000000

     12   D      16             1.0570000    1.000000000000

 TOTAL NUMBER OF BASIS SET SHELLS             =   12
 NUMBER OF CARTESIAN GAUSSIAN BASIS FUNCTIONS =   30
 NOTE: THIS RUN WILL RESTRICT THE MO VARIATION SPACE TO SPHERICAL HARMONICS.
 THE NUMBER OF ORBITALS KEPT IN THE VARIATIONAL SPACE WILL BE PRINTED LATER.
 NUMBER OF ELECTRONS                          =    2
 CHARGE OF MOLECULE                           =    0
 SPIN MULTIPLICITY                            =    1
 NUMBER OF OCCUPIED ORBITALS (ALPHA)          =    1
 NUMBER OF OCCUPIED ORBITALS (BETA )          =    1
 TOTAL NUMBER OF ATOMS                        =    2
 THE NUCLEAR REPULSION ENERGY IS        0.5882352941

 THIS MOLECULE IS RECOGNIZED AS BEING LINEAR,
 ORBITAL LZ DEGENERACY TOLERANCE ETOLLZ= 1.00E-06

     $CONTRL OPTIONS
     ---------------
 SCFTYP=RHF          RUNTYP=ENERGY       EXETYP=RUN     
 MPLEVL=       0     CITYP =CIS          CCTYP =NONE         VBTYP =NONE    
 DFTTYP=NONE         TDDFT =NONE    
 MULT  =       1     ICHARG=       0     NZVAR =       0     COORD =UNIQUE  
 PP    =NONE         RELWFN=NONE         LOCAL =NONE         NUMGRD=       F
 ISPHER=       1     NOSYM =       0     MAXIT =      30     UNITS =BOHR    
 PLTORB=       F     MOLPLT=       F     AIMPAC=       F     FRIEND=        
 NPRINT=       7     IREST =       0     GEOM  =INPUT   
 NORMF =       0     NORMP =       0     ITOL  =      20     ICUT  =       9
 INTTYP=BEST         GRDTYP=BEST         QMTTOL= 1.0E-06

     $SYSTEM OPTIONS
     ---------------
  REPLICATED MEMORY=     1000000 WORDS (ON EVERY NODE).
 DISTRIBUTED MEMDDI=           0 MILLION WORDS IN AGGREGATE,
 MEMDDI DISTRIBUTED OVER  16 PROCESSORS IS           0 WORDS/PROCESSOR.
 TOTAL MEMORY REQUESTED ON EACH PROCESSOR=     1000000 WORDS.
 TIMLIM=      525600.00 MINUTES, OR     365.0 DAYS.
 PARALL= T  BALTYP=  DLB     KDIAG=    0  COREFL= F
 MXSEQ2=     300 MXSEQ3=     150  mem10=         0

          ----------------
          PROPERTIES INPUT
          ----------------

     MOMENTS            FIELD           POTENTIAL          DENSITY
 IEMOM =       1   IEFLD =       0   IEPOT =       0   IEDEN =       0
 WHERE =COMASS     WHERE =NUCLEI     WHERE =NUCLEI     WHERE =NUCLEI  
 OUTPUT=BOTH       OUTPUT=BOTH       OUTPUT=BOTH       OUTPUT=BOTH    
 IEMINT=       0   IEFINT=       0                     IEDINT=       0
                                                       MORB  =       0
          EXTRAPOLATION IN EFFECT
          SOSCF IN EFFECT
 ORBITAL PRINTING OPTION: NPREO=     1    30     2     1

     -------------------------------
     INTEGRAL TRANSFORMATION OPTIONS
     -------------------------------
     NWORD  =            0
     CUTOFF = 1.0E-09     MPTRAN =       0
     DIRTRF =       F     AOINTS =DUP     

          ----------------------
          INTEGRAL INPUT OPTIONS
          ----------------------
 NOPK  =       1 NORDER=       0 SCHWRZ=       F

     ------------------------------
     CI-SINGLES CONTROL INFORMATION
     ------------------------------
     NACORE =        0  NBCORE   =        0
     NSTATE =        5  IROOT    =        1
     HAMTYP = SAPS      SAP MULT =        1
     DIAGZN = DAVID     MXVEC    =       40
     NDAVIT =       50  DAVCVG   = 1.00E-05
     CISPRP =        F  NGSVEC   =       10
     MNMEDG =        F  MNMEOP   =        F
     CHFSLV = CONJG     RDCISV   =        F
     DGAPRX =        T

     NUMBER OF CORE -A-  ORBITALS =     0
     NUMBER OF CORE -B-  ORBITALS =     0
     NUMBER OF OCC. -A-  ORBITALS =     1
     NUMBER OF OCC. -B-  ORBITALS =     1
     NUMBER OF MOLECULAR ORBITALS =    30
     NUMBER OF   BASIS  FUNCTIONS =    30


     ------------------------------------------
     THE POINT GROUP IS C1 , NAXIS= 0, ORDER= 1
     ------------------------------------------

 -- VARIATIONAL SPACE WILL BE RESTRICTED TO PURE SPHERICAL HARMONICS ONLY --
 AFTER EXCLUDING CONTAMINANT COMBINATIONS FROM THE CARTESIAN GAUSSIAN BASIS
 SET, THE NUMBER OF SPHERICAL HARMONICS KEPT IN THE VARIATION SPACE IS   28

     DIMENSIONS OF THE SYMMETRY SUBSPACES ARE
 A   =   28

 ..... DONE SETTING UP THE RUN .....
 CPU     0: STEP CPU TIME=     0.03 TOTAL CPU TIME=        0.0 (    0.0 MIN)
 TOTAL WALL CLOCK TIME=        0.0 SECONDS, CPU UTILIZATION IS  75.00%

          ********************
          1 ELECTRON INTEGRALS
          ********************
 ...... END OF ONE-ELECTRON INTEGRALS ......
 CPU     0: STEP CPU TIME=     0.00 TOTAL CPU TIME=        0.0 (    0.0 MIN)
 TOTAL WALL CLOCK TIME=        0.1 SECONDS, CPU UTILIZATION IS  33.33%

          -------------
          GUESS OPTIONS
          -------------
          GUESS =HUCKEL            NORB  =       0          NORDER=       0
          MIX   =       F          PRTMO =       F          PUNMO =       F
          TOLZ  = 1.0E-08          TOLE  = 1.0E-05
          SYMDEN=       F          PURIFY=       F

 INITIAL GUESS ORBITALS GENERATED BY HUCKEL   ROUTINE.
 HUCKEL GUESS REQUIRES      8082 WORDS.

 STATISTICS FOR GENERATION OF SYMMETRY ORBITAL -Q- MATRIX
 NUMBER OF CARTESIAN ATOMIC ORBITALS=         30
 NUMBER OF SPHERICAL CONTAMINANTS DROPPED=     2
 NUMBER OF LINEARLY DEPENDENT MOS DROPPED=     0
 TOTAL NUMBER OF MOS IN VARIATION SPACE=      28

 SYMMETRIES FOR INITIAL GUESS ORBITALS FOLLOW.   BOTH SET(S).
     1 ORBITALS ARE OCCUPIED (    0 CORE ORBITALS).
     1=A        2=A        3=A        4=A        5=A        6=A        7=A   
     8=A        9=A       10=A       11=A   
 ...... END OF INITIAL ORBITAL SELECTION ......
 CPU     0: STEP CPU TIME=     0.00 TOTAL CPU TIME=        0.0 (    0.0 MIN)
 TOTAL WALL CLOCK TIME=        0.2 SECONDS, CPU UTILIZATION IS  18.75%

                    ----------------------
                    AO INTEGRAL TECHNOLOGY
                    ----------------------
     S,P,L SHELL ROTATED AXIS INTEGRALS, REPROGRAMMED BY
        KAZUYA ISHIMURA (IMS) AND JOSE SIERRA (SYNSTAR).
     S,P,D,L SHELL ROTATED AXIS INTEGRALS PROGRAMMED BY
        KAZUYA ISHIMURA (INSTITUTE FOR MOLECULAR SCIENCE).
     S,P,D,F,G SHELL TO TOTAL QUARTET ANGULAR MOMENTUM SUM 5,
        ERIC PROGRAM BY GRAHAM FLETCHER (ELORET AND NASA ADVANCED
        SUPERCOMPUTING DIVISION, AMES RESEARCH CENTER).
     S,P,D,F,G,L SHELL GENERAL RYS QUADRATURE PROGRAMMED BY
        MICHEL DUPUIS (PACIFIC NORTHWEST NATIONAL LABORATORY).

          --------------------
          2 ELECTRON INTEGRALS
          --------------------

 THE -PK- OPTION IS OFF, THE INTEGRALS ARE NOT IN SUPERMATRIX FORM.
 STORING   15000 INTEGRALS/RECORD ON DISK, USING 12 BYTES/INTEGRAL.
 TWO ELECTRON INTEGRAL EVALUATION REQUIRES   90474 WORDS OF MEMORY.
 II,JST,KST,LST =  1  1  1  1 NREC =         1 INTLOC =    1
 II,JST,KST,LST =  2  1  1  1 NREC =         1 INTLOC =    1
 II,JST,KST,LST =  3  1  1  1 NREC =         1 INTLOC =    2
 II,JST,KST,LST =  4  1  1  1 NREC =         1 INTLOC =    2
 II,JST,KST,LST =  5  1  1  1 NREC =         1 INTLOC =    2
 II,JST,KST,LST =  6  1  1  1 NREC =         1 INTLOC =    2
 II,JST,KST,LST =  7  1  1  1 NREC =         1 INTLOC =    5
 II,JST,KST,LST =  8  1  1  1 NREC =         1 INTLOC =    5
 II,JST,KST,LST =  9  1  1  1 NREC =         1 INTLOC =   43
 II,JST,KST,LST = 10  1  1  1 NREC =         1 INTLOC =   43
 II,JST,KST,LST = 11  1  1  1 NREC =         1 INTLOC =   55
 II,JST,KST,LST = 12  1  1  1 NREC =         1 INTLOC =  151
 TOTAL NUMBER OF NONZERO TWO-ELECTRON INTEGRALS =               28697
         16 INTEGRAL RECORDS WERE STORED ON DISK FILE  8.
  ...... END OF TWO-ELECTRON INTEGRALS .....
 CPU     0: STEP CPU TIME=     0.02 TOTAL CPU TIME=        0.0 (    0.0 MIN)
 TOTAL WALL CLOCK TIME=        0.2 SECONDS, CPU UTILIZATION IS  21.74%

          --------------------------
                 RHF SCF CALCULATION
          --------------------------

     NUCLEAR ENERGY =         0.5882352941
     MAXIT =   30     NPUNCH=    2
     EXTRAP=T  DAMP=F  SHIFT=F  RSTRCT=F  DIIS=F  DEM=F  SOSCF=T
     DENSITY MATRIX CONV=  1.00E-06
     SOSCF WILL OPTIMIZE      27 ORBITAL ROTATIONS, SOGTOL=   0.250
     MEMORY REQUIRED FOR RHF ITERS=     36828 WORDS.

 ITER EX DEM     TOTAL ENERGY        E CHANGE  DENSITY CHANGE     ORB. GRAD
   1  0  0       -1.0959312609    -1.0959312609   0.064321993   0.000000000
          ---------------START SECOND ORDER SCF---------------
   2  1  0       -1.1176697025    -0.0217384417   0.019923250   0.016574767
   3  2  0       -1.1187320042    -0.0010623017   0.006180662   0.003642128
   4  3  0       -1.1187855518    -0.0000535476   0.000055030   0.000135029
   5  4  0       -1.1187855825    -0.0000000307   0.000012472   0.000015892
   6  5  0       -1.1187855831    -0.0000000006   0.000000180   0.000000554
   7  6  0       -1.1187855831    -0.0000000000   0.000000060   0.000000116

          -----------------
          DENSITY CONVERGED
          -----------------
     TIME TO FORM FOCK OPERATORS=       0.0 SECONDS (       0.0 SEC/ITER)
     TIME TO SOLVE SCF EQUATIONS=       0.0 SECONDS (       0.0 SEC/ITER)

 FINAL RHF ENERGY IS       -1.1187855831 AFTER   7 ITERATIONS

 LZ VALUE ANALYSIS FOR THE MOS
 ----------------------------------------
 MO     1 (    1) HAS LZ(WEIGHT)= 0.00(100.0%) 
 MO     2 (    2) HAS LZ(WEIGHT)= 0.00(100.0%) 
 MO     3 (    3) HAS LZ(WEIGHT)= 0.00(100.0%) 
 MO     4 (    4) HAS LZ(WEIGHT)= 0.00(100.0%) 
 MO     5 (    5) HAS LZ(WEIGHT)= 0.00(100.0%) 
 MO     6 (    5) HAS LZ(WEIGHT)= 0.00(100.0%) 
 MO     7 (    6) HAS LZ(WEIGHT)= 0.00(100.0%) 
 MO     8 (    7) HAS LZ(WEIGHT)= 0.00(100.0%) 
 MO     9 (    7) HAS LZ(WEIGHT)= 0.00(100.0%) 
 MO    10 (    8) HAS LZ(WEIGHT)= 0.00(100.0%) 
 MO    11 (    9) HAS LZ(WEIGHT)= 0.00(100.0%) 
 MO    12 (   10) HAS LZ(WEIGHT)= 0.00(100.0%) 
 MO    13 (   11) HAS LZ(WEIGHT)= 0.00(100.0%) 
 MO    14 (   11) HAS LZ(WEIGHT)= 0.00(100.0%) 
 MO    15 (   12) HAS LZ(WEIGHT)= 0.00(100.0%) 
 MO    16 (   12) HAS LZ(WEIGHT)= 0.00(100.0%) 
 MO    17 (   13) HAS LZ(WEIGHT)= 0.00(100.0%) 
 MO    18 (   14) HAS LZ(WEIGHT)= 0.00(100.0%) 
 MO    19 (   14) HAS LZ(WEIGHT)= 0.00(100.0%) 
 MO    20 (   15) HAS LZ(WEIGHT)= 0.00(100.0%) 
 MO    21 (   15) HAS LZ(WEIGHT)= 0.00(100.0%) 
 MO    22 (   16) HAS LZ(WEIGHT)= 0.00(100.0%) 
 MO    23 (   16) HAS LZ(WEIGHT)= 0.00(100.0%) 
 MO    24 (   17) HAS LZ(WEIGHT)= 0.00(100.0%) 
 MO    25 (   18) HAS LZ(WEIGHT)= 0.00(100.0%) 
 MO    26 (   18) HAS LZ(WEIGHT)= 0.00(100.0%) 
 MO    27 (   19) HAS LZ(WEIGHT)= 0.00(100.0%) 
 MO    28 (   20) HAS LZ(WEIGHT)= 0.00(100.0%) 

          ------------
          EIGENVECTORS
          ------------

                      1          2          3          4          5
                   -0.5502     0.1423     0.3195     0.5817     0.6780
                     A          A          A          A          A   
    1  H  1  S    0.169468  -0.093622  -0.049994   0.103969   0.000000
    2  H  1  S    0.286055   0.015873  -0.787849   1.183217   0.000000
    3  H  1  S    0.162312  -1.815466   0.876842  -2.004235   0.000000
    4  H  1  X    0.010027   0.019722  -0.011920   0.030768   0.000000
    5  H  1  Y    0.000000   0.000000   0.000000   0.000000  -0.016223
    6  H  1  Z    0.000000   0.000000   0.000000   0.000000  -0.058349
    7  H  1  X    0.020839   0.009891   0.017762  -0.214145   0.000000
    8  H  1  Y    0.000000   0.000000   0.000000   0.000000   0.160388
    9  H  1  Z    0.000000   0.000000   0.000000   0.000000   0.576873
   10  H  1 XX    0.001811   0.008417   0.008315   0.023503   0.000000
   11  H  1 YY   -0.000906  -0.004209  -0.004157  -0.011751   0.000000
   12  H  1 ZZ   -0.000906  -0.004209  -0.004157  -0.011751   0.000000
   13  H  1 XY    0.000000   0.000000   0.000000   0.000000  -0.003677
   14  H  1 XZ    0.000000   0.000000   0.000000   0.000000  -0.013226
   15  H  1 YZ    0.000000   0.000000   0.000000   0.000000   0.000000
   16  H  2  S    0.169468   0.093622  -0.049994  -0.103969   0.000000
   17  H  2  S    0.286055  -0.015873  -0.787849  -1.183217   0.000000
   18  H  2  S    0.162312   1.815466   0.876842   2.004235   0.000000
   19  H  2  X   -0.010027   0.019722   0.011920   0.030768   0.000000
   20  H  2  Y    0.000000   0.000000   0.000000   0.000000  -0.016223
   21  H  2  Z    0.000000   0.000000   0.000000   0.000000  -0.058349
   22  H  2  X   -0.020839   0.009891  -0.017762  -0.214145   0.000000
   23  H  2  Y    0.000000   0.000000   0.000000   0.000000   0.160388
   24  H  2  Z    0.000000   0.000000   0.000000   0.000000   0.576873
   25  H  2 XX    0.001811  -0.008417   0.008315  -0.023503   0.000000
   26  H  2 YY   -0.000906   0.004209  -0.004157   0.011751   0.000000
   27  H  2 ZZ   -0.000906   0.004209  -0.004157   0.011751   0.000000
   28  H  2 XY    0.000000   0.000000   0.000000   0.000000   0.003677
   29  H  2 XZ    0.000000   0.000000   0.000000   0.000000   0.013226
   30  H  2 YZ    0.000000   0.000000   0.000000   0.000000   0.000000

                      6          7          8          9         10
                    0.6780     1.0457     1.0875     1.0875     1.4925
                     A          A          A          A          A   
    1  H  1  S    0.000000  -0.017253   0.000000   0.000000   0.009084
    2  H  1  S    0.000000   0.631519   0.000000   0.000000  -6.485150
    3  H  1  S    0.000000  -0.331444   0.000000   0.000000  -0.427988
    4  H  1  X    0.000000   0.098229   0.000000   0.000000  -0.018934
    5  H  1  Y   -0.058349   0.000000   0.085702  -0.022640   0.000000
    6  H  1  Z    0.016223   0.000000  -0.022640  -0.085702   0.000000
    7  H  1  X    0.000000  -0.888238   0.000000   0.000000  -4.242302
    8  H  1  Y    0.576873   0.000000  -1.141282   0.301496   0.000000
    9  H  1  Z   -0.160388   0.000000   0.301496   1.141282   0.000000
   10  H  1 XX    0.000000  -0.017550   0.000000   0.000000  -0.282632
   11  H  1 YY    0.000000   0.008775   0.000000   0.000000   0.141316
   12  H  1 ZZ    0.000000   0.008775   0.000000   0.000000   0.141316
   13  H  1 XY   -0.013226   0.000000  -0.045006   0.011889   0.000000
   14  H  1 XZ    0.003677   0.000000   0.011889   0.045006   0.000000
   15  H  1 YZ    0.000000   0.000000   0.000000   0.000000   0.000000
   16  H  2  S    0.000000  -0.017253   0.000000   0.000000  -0.009084
   17  H  2  S    0.000000   0.631519   0.000000   0.000000   6.485150
   18  H  2  S    0.000000  -0.331444   0.000000   0.000000   0.427988
   19  H  2  X    0.000000  -0.098229   0.000000   0.000000  -0.018934
   20  H  2  Y   -0.058349   0.000000  -0.085702   0.022640   0.000000
   21  H  2  Z    0.016223   0.000000   0.022640   0.085702   0.000000
   22  H  2  X    0.000000   0.888238   0.000000   0.000000  -4.242302
   23  H  2  Y    0.576873   0.000000   1.141282  -0.301496   0.000000
   24  H  2  Z   -0.160388   0.000000  -0.301496  -1.141282   0.000000
   25  H  2 XX    0.000000  -0.017550   0.000000   0.000000   0.282632
   26  H  2 YY    0.000000   0.008775   0.000000   0.000000  -0.141316
   27  H  2 ZZ    0.000000   0.008775   0.000000   0.000000  -0.141316
   28  H  2 XY    0.013226   0.000000  -0.045006   0.011889   0.000000
   29  H  2 XZ   -0.003677   0.000000   0.011889   0.045006   0.000000
   30  H  2 YZ    0.000000   0.000000   0.000000   0.000000   0.000000

                     11         12         13         14         15
                    2.4677     2.4813     3.1806     3.1806     3.3027
                     A          A          A          A          A   
    1  H  1  S    0.995858  -0.977809   0.000000   0.000000   0.000000
    2  H  1  S   -4.446079   1.056111   0.000000   0.000000   0.000000
    3  H  1  S    1.057149  -0.415967   0.000000   0.000000   0.000000
    4  H  1  X   -0.280301  -0.101137   0.000000   0.000000   0.000000
    5  H  1  Y    0.000000   0.000000   0.000000   0.000000  -0.023869
    6  H  1  Z    0.000000   0.000000   0.000000   0.000000  -0.439918
    7  H  1  X   -1.651324   0.129381   0.000000   0.000000   0.000000
    8  H  1  Y    0.000000   0.000000   0.000000   0.000000   0.016178
    9  H  1  Z    0.000000   0.000000   0.000000   0.000000   0.298167
   10  H  1 XX   -0.417647  -0.161315   0.000000   0.000000   0.000000
   11  H  1 YY    0.208823   0.080658  -0.554209  -0.030982   0.000000
   12  H  1 ZZ    0.208823   0.080658   0.554209   0.030982   0.000000
   13  H  1 XY    0.000000   0.000000   0.000000   0.000000  -0.025277
   14  H  1 XZ    0.000000   0.000000   0.000000   0.000000  -0.465872
   15  H  1 YZ    0.000000   0.000000  -0.035775   0.639946   0.000000
   16  H  2  S   -0.995858  -0.977809   0.000000   0.000000   0.000000
   17  H  2  S    4.446079   1.056111   0.000000   0.000000   0.000000
   18  H  2  S   -1.057149  -0.415967   0.000000   0.000000   0.000000
   19  H  2  X   -0.280301   0.101137   0.000000   0.000000   0.000000
   20  H  2  Y    0.000000   0.000000   0.000000   0.000000  -0.023869
   21  H  2  Z    0.000000   0.000000   0.000000   0.000000  -0.439918
   22  H  2  X   -1.651324  -0.129381   0.000000   0.000000   0.000000
   23  H  2  Y    0.000000   0.000000   0.000000   0.000000   0.016178
   24  H  2  Z    0.000000   0.000000   0.000000   0.000000   0.298167
   25  H  2 XX    0.417647  -0.161315   0.000000   0.000000   0.000000
   26  H  2 YY   -0.208823   0.080658  -0.554209  -0.030982   0.000000
   27  H  2 ZZ   -0.208823   0.080658   0.554209   0.030982   0.000000
   28  H  2 XY    0.000000   0.000000   0.000000   0.000000   0.025277
   29  H  2 XZ    0.000000   0.000000   0.000000   0.000000   0.465872
   30  H  2 YZ    0.000000   0.000000  -0.035775   0.639946   0.000000

                     16         17         18         19         20
                    3.3027     3.5684     3.9193     3.9193     3.9850
                     A          A          A          A          A   
    1  H  1  S    0.000000   0.186367   0.000000   0.000000   0.000000
    2  H  1  S    0.000000  -0.373698   0.000000   0.000000   0.000000
    3  H  1  S    0.000000   0.156779   0.000000   0.000000   0.000000
    4  H  1  X    0.000000  -0.835433   0.000000   0.000000   0.000000
    5  H  1  Y    0.439918   0.000000   0.000000   0.000000  -0.017720
    6  H  1  Z   -0.023869   0.000000   0.000000   0.000000  -0.767575
    7  H  1  X    0.000000   0.640762   0.000000   0.000000   0.000000
    8  H  1  Y   -0.298167   0.000000   0.000000   0.000000   0.020758
    9  H  1  Z    0.016178   0.000000   0.000000   0.000000   0.899136
   10  H  1 XX    0.000000   0.096898   0.000000   0.000000   0.000000
   11  H  1 YY    0.000000  -0.048449   0.691026  -0.038409   0.000000
   12  H  1 ZZ    0.000000  -0.048449  -0.691026   0.038409   0.000000
   13  H  1 XY    0.465872   0.000000   0.000000   0.000000   0.012077
   14  H  1 XZ   -0.025277   0.000000   0.000000   0.000000   0.523117
   15  H  1 YZ    0.000000   0.000000   0.044351   0.797929   0.000000
   16  H  2  S    0.000000   0.186367   0.000000   0.000000   0.000000
   17  H  2  S    0.000000  -0.373698   0.000000   0.000000   0.000000
   18  H  2  S    0.000000   0.156779   0.000000   0.000000   0.000000
   19  H  2  X    0.000000   0.835433   0.000000   0.000000   0.000000
   20  H  2  Y    0.439918   0.000000   0.000000   0.000000   0.017720
   21  H  2  Z   -0.023869   0.000000   0.000000   0.000000   0.767575
   22  H  2  X    0.000000  -0.640762   0.000000   0.000000   0.000000
   23  H  2  Y   -0.298167   0.000000   0.000000   0.000000  -0.020758
   24  H  2  Z    0.016178   0.000000   0.000000   0.000000  -0.899136
   25  H  2 XX    0.000000   0.096898   0.000000   0.000000   0.000000
   26  H  2 YY    0.000000  -0.048449  -0.691026   0.038409   0.000000
   27  H  2 ZZ    0.000000  -0.048449   0.691026  -0.038409   0.000000
   28  H  2 XY   -0.465872   0.000000   0.000000   0.000000   0.012077
   29  H  2 XZ    0.025277   0.000000   0.000000   0.000000   0.523117
   30  H  2 YZ    0.000000   0.000000  -0.044351  -0.797929   0.000000

                     21         22         23         24         25
                    3.9850     3.9912     3.9912     4.2234     5.1883
                     A          A          A          A          A   
    1  H  1  S    0.000000   0.000000   0.000000   0.336679   0.000000
    2  H  1  S    0.000000   0.000000   0.000000   4.103096   0.000000
    3  H  1  S    0.000000   0.000000   0.000000   0.314380   0.000000
    4  H  1  X    0.000000   0.000000   0.000000  -0.226468   0.000000
    5  H  1  Y   -0.767575   0.772499   0.043932   0.000000   0.292081
    6  H  1  Z    0.017720  -0.043932   0.772499   0.000000   0.481366
    7  H  1  X    0.000000   0.000000   0.000000   2.836736   0.000000
    8  H  1  Y    0.899136  -0.328184  -0.018664   0.000000   0.176543
    9  H  1  Z   -0.020758   0.018664  -0.328184   0.000000   0.290953
   10  H  1 XX    0.000000   0.000000   0.000000   1.001798   0.000000
   11  H  1 YY    0.000000   0.000000   0.000000  -0.500899   0.000000
   12  H  1 ZZ    0.000000   0.000000   0.000000  -0.500899   0.000000
   13  H  1 XY    0.523117  -0.392811  -0.022339   0.000000   0.584244
   14  H  1 XZ   -0.012077   0.022339  -0.392811   0.000000   0.962868
   15  H  1 YZ    0.000000   0.000000   0.000000   0.000000   0.000000
   16  H  2  S    0.000000   0.000000   0.000000  -0.336679   0.000000
   17  H  2  S    0.000000   0.000000   0.000000  -4.103096   0.000000
   18  H  2  S    0.000000   0.000000   0.000000  -0.314380   0.000000
   19  H  2  X    0.000000   0.000000   0.000000  -0.226468   0.000000
   20  H  2  Y    0.767575   0.772499   0.043932   0.000000  -0.292081
   21  H  2  Z   -0.017720  -0.043932   0.772499   0.000000  -0.481366
   22  H  2  X    0.000000   0.000000   0.000000   2.836736   0.000000
   23  H  2  Y   -0.899136  -0.328184  -0.018664   0.000000  -0.176543
   24  H  2  Z    0.020758   0.018664  -0.328184   0.000000  -0.290953
   25  H  2 XX    0.000000   0.000000   0.000000  -1.001798   0.000000
   26  H  2 YY    0.000000   0.000000   0.000000   0.500899   0.000000
   27  H  2 ZZ    0.000000   0.000000   0.000000   0.500899   0.000000
   28  H  2 XY    0.523117   0.392811   0.022339   0.000000   0.584244
   29  H  2 XZ   -0.012077  -0.022339   0.392811   0.000000   0.962868
   30  H  2 YZ    0.000000   0.000000   0.000000   0.000000   0.000000

                     26         27         28
                    5.1883     5.2364     6.4252
                     A          A          A   
    1  H  1  S    0.000000  -0.816559   0.562489
    2  H  1  S    0.000000   0.334144   3.640410
    3  H  1  S    0.000000  -0.033189  -0.432737
    4  H  1  X    0.000000  -0.404682   1.505479
    5  H  1  Y    0.481366   0.000000   0.000000
    6  H  1  Z   -0.292081   0.000000   0.000000
    7  H  1  X    0.000000   0.593767   1.704981
    8  H  1  Y    0.290953   0.000000   0.000000
    9  H  1  Z   -0.176543   0.000000   0.000000
   10  H  1 XX    0.000000   0.908263   1.140997
   11  H  1 YY    0.000000  -0.454132  -0.570498
   12  H  1 ZZ    0.000000  -0.454132  -0.570498
   13  H  1 XY    0.962868   0.000000   0.000000
   14  H  1 XZ   -0.584244   0.000000   0.000000
   15  H  1 YZ    0.000000   0.000000   0.000000
   16  H  2  S    0.000000  -0.816559  -0.562489
   17  H  2  S    0.000000   0.334144  -3.640410
   18  H  2  S    0.000000  -0.033189   0.432737
   19  H  2  X    0.000000   0.404682   1.505479
   20  H  2  Y   -0.481366   0.000000   0.000000
   21  H  2  Z    0.292081   0.000000   0.000000
   22  H  2  X    0.000000  -0.593767   1.704981
   23  H  2  Y   -0.290953   0.000000   0.000000
   24  H  2  Z    0.176543   0.000000   0.000000
   25  H  2 XX    0.000000   0.908263  -1.140997
   26  H  2 YY    0.000000  -0.454132   0.570498
   27  H  2 ZZ    0.000000  -0.454132   0.570498
   28  H  2 XY    0.962868   0.000000   0.000000
   29  H  2 XZ   -0.584244   0.000000   0.000000
   30  H  2 YZ    0.000000   0.000000   0.000000
 ...... END OF RHF CALCULATION ......
 CPU     0: STEP CPU TIME=     0.01 TOTAL CPU TIME=        0.1 (    0.0 MIN)
 TOTAL WALL CLOCK TIME=        0.5 SECONDS, CPU UTILIZATION IS  10.91%

     ----------------------------------------------------------------
     PROPERTY VALUES FOR THE RHF   SELF-CONSISTENT FIELD WAVEFUNCTION
     ----------------------------------------------------------------

          -----------------
          ENERGY COMPONENTS
          -----------------

         WAVEFUNCTION NORMALIZATION =       1.0000000000

                ONE ELECTRON ENERGY =      -2.3137364199
                TWO ELECTRON ENERGY =       0.6067155426
           NUCLEAR REPULSION ENERGY =       0.5882352941
                                      ------------------
                       TOTAL ENERGY =      -1.1187855831

 ELECTRON-ELECTRON POTENTIAL ENERGY =       0.6067155426
  NUCLEUS-ELECTRON POTENTIAL ENERGY =      -3.2985448187
   NUCLEUS-NUCLEUS POTENTIAL ENERGY =       0.5882352941
                                      ------------------
             TOTAL POTENTIAL ENERGY =      -2.1035939820
               TOTAL KINETIC ENERGY =       0.9848083989
                 VIRIAL RATIO (V/T) =       2.1360439091

  ...... PI ENERGY ANALYSIS ......

 ENERGY ANALYSIS:
            FOCK ENERGY=     -1.1003053512
          BARE H ENERGY=     -2.3137364199
     ELECTRONIC ENERGY =     -1.7070208855
         KINETIC ENERGY=      0.9848083989
          N-N REPULSION=      0.5882352941
           TOTAL ENERGY=     -1.1187855914
        SIGMA PART(1+2)=     -1.7070208855
               (K,V1,2)=      0.9848083989     -3.2985448187      0.6067155343
           PI PART(1+2)=      0.0000000000
               (K,V1,2)=      0.0000000000      0.0000000000      0.0000000000
  SIGMA SKELETON, ERROR=     -1.1187855914      0.0000000000
             MIXED PART= 0.00000E+00 0.00000E+00 0.00000E+00 0.00000E+00
 ...... END OF PI ENERGY ANALYSIS ......

          ---------------------------------------
          MULLIKEN AND LOWDIN POPULATION ANALYSES
          ---------------------------------------

               ----- POPULATIONS IN EACH AO -----
                             MULLIKEN      LOWDIN
              1  H  1  S      0.20799     0.16116
              2  H  1  S      0.50688     0.29624
              3  H  1  S      0.26799     0.27776
              4  H  1  X      0.00317     0.00307
              5  H  1  Y      0.00000     0.00000
              6  H  1  Z      0.00000     0.00000
              7  H  1  X      0.01355     0.02320
              8  H  1  Y      0.00000     0.00000
              9  H  1  Z      0.00000     0.00000
             10  H  1 XX      0.00010     0.10079
             11  H  1 YY      0.00031     0.06889
             12  H  1 ZZ      0.00000     0.06889
             13  H  1 XY      0.00000     0.00000
             14  H  1 XZ      0.00000     0.00000
             15  H  1 YZ      0.00000     0.00000
             16  H  2  S      0.20799     0.16116
             17  H  2  S      0.50688     0.29624
             18  H  2  S      0.26799     0.27776
             19  H  2  X      0.00317     0.00307
             20  H  2  Y      0.00000     0.00000
             21  H  2  Z      0.00000     0.00000
             22  H  2  X      0.01355     0.02320
             23  H  2  Y      0.00000     0.00000
             24  H  2  Z      0.00000     0.00000
             25  H  2 XX      0.00010     0.10079
             26  H  2 YY      0.00031     0.06889
             27  H  2 ZZ      0.00000     0.06889
             28  H  2 XY      0.00000     0.00000
             29  H  2 XZ      0.00000     0.00000
             30  H  2 YZ      0.00000     0.00000

          ----- MULLIKEN ATOMIC OVERLAP POPULATIONS -----
          (OFF-DIAGONAL ELEMENTS NEED TO BE MULTIPLIED BY 2)

             1           2

    1    0.5999360
    2    0.4000640   0.5999360

          TOTAL MULLIKEN AND LOWDIN ATOMIC POPULATIONS
       ATOM         MULL.POP.    CHARGE          LOW.POP.     CHARGE
    1 H             1.000000    0.000000         1.000000   -0.000000
    2 H             1.000000   -0.000000         1.000000   -0.000000

          MULLIKEN SPHERICAL HARMONIC POPULATIONS
       ATOM           S       P       D      F      G      H      I    TOTAL
    1 H             0.98    0.02    0.00   0.00   0.00   0.00   0.00    1.00
    2 H             0.98    0.02    0.00   0.00   0.00   0.00   0.00    1.00

          ---------------------
          ELECTROSTATIC MOMENTS
          ---------------------

 POINT   1           X           Y           Z (BOHR)    CHARGE
                 0.850000    0.000000    0.000000       -0.00 (A.U.)
         DX          DY          DZ         /D/  (DEBYE)
    -0.000000    0.000000    0.000000    0.000000
 ...... END OF PROPERTY EVALUATION ......
 CPU     0: STEP CPU TIME=     0.01 TOTAL CPU TIME=        0.1 (    0.0 MIN)
 TOTAL WALL CLOCK TIME=        0.6 SECONDS, CPU UTILIZATION IS  11.11%

 MXVEC CANNOT BE BIGGER THAN THE NUMBER OF CIS CONFIGS
 SETTING MXVEC = NCFG


          ---------------------------------------------
             ATOMIC ORBITAL BASIS CI-SINGLES ENERGY
             PROGRAM WRITTEN BY SIMON P. WEBB
          ---------------------------------------------

 # CORE ORBITALS      =    0
 # OCCUPIED ORBITALS  =    1
 # MOLECULAR ORBITALS =   28
 # BASIS FUNCTIONS    =   30

 NUMBER OF CIS SPIN-ADAPTED ANTISYMMETRIZED PRODUCTS (SAPS) IS      27

 APPROXIMATING CIS HAMILTONIAN DIAGONAL ELEMENTS USING ONLY ORBITAL ENERGIES

 -CIS- HAM. DIAGONAL ELEMENTS  TOOK      0.000 SECONDS

 MIN MEMORY REQ. FOR CIS ENERGY FOCK-LIKE BUILDS =      1800 WORDS
 MEMORY REQ. FOR SINGLE BATCH BUILDS             =     48600 WORDS
 MEMORY AVAILABLE                                =    958955 WORDS

 SINGLE BATCH ENERGY CALCULATION WILL BE PERFORMED

 UNIT VECTOR GUESS AT CIS COEFFICIENTS ...

 USING IN MEMORY DIAGONALIZTION TO FIND CIS EIGENVALUES AND EIGENVECTORS ...

 STATE    1 ENERGY=       -0.6699038068
 STATE    2 ENERGY=       -0.4967542314
 STATE    3 ENERGY=       -0.2661665604
 STATE    4 ENERGY=       -0.2303752270
 STATE    5 ENERGY=       -0.2303752270


        --------------------------------------------------------
        RESULTS FROM SPIN-ADAPTED ANTISYMMETRIZED PRODUCT (SAPS)
        BASED ATOMIC ORBITAL CI-SINGLES ENERGY CALCULATION
        --------------------------------------------------------

 PRINTING CIS COEFFICIENTS LARGER THAN  0.050000

 RHF REFERENCE ENERGY  =        -1.1187855831


 EXCITED STATE   1  ENERGY=        -0.6699038068  S = 0.0  SPACE SYM = A   

          ----------------------------------------------
          SINGLE EXCITATION               SAP COEFFICENT
          FROM MO     TO MO
          ----------------------------------------------
             1          2                  -0.99978886
          ----------------------------------------------


 EXCITED STATE   2  ENERGY=        -0.4967542314  S = 0.0  SPACE SYM = A   

          ----------------------------------------------
          SINGLE EXCITATION               SAP COEFFICENT
          FROM MO     TO MO
          ----------------------------------------------
             1          3                  -0.99996688
          ----------------------------------------------


 EXCITED STATE   3  ENERGY=        -0.2661665604  S = 0.0  SPACE SYM = A   

          ----------------------------------------------
          SINGLE EXCITATION               SAP COEFFICENT
          FROM MO     TO MO
          ----------------------------------------------
             1          4                  -0.99974540
          ----------------------------------------------


 EXCITED STATE   4  ENERGY=        -0.2303752270  S = 0.0  SPACE SYM = A   

          ----------------------------------------------
          SINGLE EXCITATION               SAP COEFFICENT
          FROM MO     TO MO
          ----------------------------------------------
             1          5                  -0.95586287
             1          6                  -0.29377530
          ----------------------------------------------


 EXCITED STATE   5  ENERGY=        -0.2303752270  S = 0.0  SPACE SYM = A   

          ----------------------------------------------
          SINGLE EXCITATION               SAP COEFFICENT
          FROM MO     TO MO
          ----------------------------------------------
             1          5                  -0.29377530
             1          6                   0.95586287
          ----------------------------------------------

  ---------------------------------------------------------------------
                    CI-SINGLES EXCITATION ENERGIES
  STATE       HARTREE        EV      KCAL/MOL       CM-1         NM
  ---------------------------------------------------------------------
   1A     0.4488817763    12.2147    281.6776      98518.16     101.50
   1A     0.6220313517    16.9263    390.3306     136520.10      73.25
   1A     0.8526190227    23.2009    535.0266     187128.25      53.44
   1A     0.8884103561    24.1749    557.4860     194983.54      51.29
   1A     0.8884103561    24.1749    557.4860     194983.54      51.29

 -CIS- ENERGY                  TOOK      0.010 SECONDS

  ---------------------------------------------------------------------
                    CIS TRANSITION DIPOLE MOMENTS AND
                    EXPECTATION VALUES OF DIPOLE MOMENTS
  ---------------------------------------------------------------------

 GROUND STATE (SCF) DIPOLE=    -0.000000     0.000000     0.000000 DEBYE

 TRANSITION FROM THE GROUND STATE TO EXCITED STATE  1

 STATE MULTIPLICITIES =   1  1
 STATE ENERGIES =         -1.1187855831       -0.6699038068
 EXCITATION ENERGY =  2.9535E+15 [1/SEC] =    98518.16 [1/CM] =     12.21 [EV]
                            X           Y           Z           NORM
 TRANSITION DIPOLE =   -1.487889   -0.000000   -0.000000    1.487889 E*BOHR
 TRANSITION DIPOLE =   -3.781866   -0.000000   -0.000000    3.781866 DEBYE
 OSCILLATOR STRENGTH =    0.662494
 EINSTEIN COEFFICIENTS: A=  4.2891E+09 1/SEC; B=  8.9846E+08 SEC/G

 TRANSITION FROM THE GROUND STATE TO EXCITED STATE  2

 STATE MULTIPLICITIES =   1  1
 STATE ENERGIES =         -1.1187855831       -0.4967542314
 EXCITATION ENERGY =  4.0928E+15 [1/SEC] =   136520.10 [1/CM] =     16.93 [EV]
                            X           Y           Z           NORM
 TRANSITION DIPOLE =    0.000000   -0.000000    0.000000    0.000000 E*BOHR
 TRANSITION DIPOLE =    0.000000   -0.000000    0.000000    0.000000 DEBYE
 OSCILLATOR STRENGTH =    0.000000
 EINSTEIN COEFFICIENTS: A=  1.2644E-19 1/SEC; B=  9.9537E-21 SEC/G

 TRANSITION FROM THE GROUND STATE TO EXCITED STATE  3

 STATE MULTIPLICITIES =   1  1
 STATE ENERGIES =         -1.1187855831       -0.2661665604
 EXCITATION ENERGY =  5.6100E+15 [1/SEC] =   187128.25 [1/CM] =     23.20 [EV]
                            X           Y           Z           NORM
 TRANSITION DIPOLE =    0.566367    0.000000    0.000000    0.566367 E*BOHR
 TRANSITION DIPOLE =    1.439574    0.000000    0.000000    1.439574 DEBYE
 OSCILLATOR STRENGTH =    0.182331
 EINSTEIN COEFFICIENTS: A=  4.2588E+09 1/SEC; B=  1.3018E+08 SEC/G

 TRANSITION FROM THE GROUND STATE TO EXCITED STATE  4

 STATE MULTIPLICITIES =   1  1
 STATE ENERGIES =         -1.1187855831       -0.2303752270
 EXCITATION ENERGY =  5.8455E+15 [1/SEC] =   194983.54 [1/CM] =     24.17 [EV]
                            X           Y           Z           NORM
 TRANSITION DIPOLE =   -0.000000   -0.645517   -1.008519    1.197415 E*BOHR
 TRANSITION DIPOLE =   -0.000000   -1.640752   -2.563420    3.043549 DEBYE
 OSCILLATOR STRENGTH =    0.849203
 EINSTEIN COEFFICIENTS: A=  2.1536E+10 1/SEC; B=  5.8190E+08 SEC/G

 TRANSITION FROM THE GROUND STATE TO EXCITED STATE  5

 STATE MULTIPLICITIES =   1  1
 STATE ENERGIES =         -1.1187855831       -0.2303752270
 EXCITATION ENERGY =  5.8455E+15 [1/SEC] =   194983.54 [1/CM] =     24.17 [EV]
                            X           Y           Z           NORM
 TRANSITION DIPOLE =   -0.000000    1.008519   -0.645517    1.197415 E*BOHR
 TRANSITION DIPOLE =   -0.000000    2.563420   -1.640752    3.043549 DEBYE
 OSCILLATOR STRENGTH =    0.849203
 EINSTEIN COEFFICIENTS: A=  2.1536E+10 1/SEC; B=  5.8190E+08 SEC/G

 EXPECTATION VALUE DIPOLE MOMENT FOR EXCITED STATE  1

 STATE MULTIPLICITY =   1
 STATE ENERGY =         -0.6699038068
                            X           Y           Z           NORM
      STATE DIPOLE =   -0.000000   -0.000000   -0.000000    0.000000 E*BOHR
      STATE DIPOLE =   -0.000000   -0.000000   -0.000000    0.000000 DEBYE

 TRANSITION BETWEEN EXCITED STATES   1 AND  2

 STATE MULTIPLICITIES=  1  1
 STATE ENERGIES =         -0.6699038068       -0.4967542314
 TRANSITION ENERGY =  1.1393E+15 [1/SEC] =    38001.94 [1/CM] =        4.71 [EV]
                            X           Y           Z           NORM
 TRANSITION DIPOLE =    1.487837    0.000000    0.000000    1.487837 E*BOHR
 TRANSITION DIPOLE =    3.781733    0.000000    0.000000    3.781733 DEBYE
 OSCILLATOR STRENGTH =    0.255529
 EINSTEIN COEFFICIENTS: A=  2.4615E+08 1/SEC; B=  8.9840E+08 SEC/G

 TRANSITION BETWEEN EXCITED STATES   1 AND  3

 STATE MULTIPLICITIES=  1  1
 STATE ENERGIES =         -0.6699038068       -0.2661665604
 TRANSITION ENERGY =  2.6565E+15 [1/SEC] =    88610.08 [1/CM] =       10.99 [EV]
                            X           Y           Z           NORM
 TRANSITION DIPOLE =    0.000000   -0.000000    0.000000    0.000000 E*BOHR
 TRANSITION DIPOLE =    0.000000   -0.000000    0.000000    0.000000 DEBYE
 OSCILLATOR STRENGTH =    0.000000
 EINSTEIN COEFFICIENTS: A=  2.8027E-20 1/SEC; B=  8.0687E-21 SEC/G

 TRANSITION BETWEEN EXCITED STATES   1 AND  4

 STATE MULTIPLICITIES=  1  1
 STATE ENERGIES =         -0.6699038068       -0.2303752270
 TRANSITION ENERGY =  2.8920E+15 [1/SEC] =    96465.37 [1/CM] =       11.96 [EV]
                            X           Y           Z           NORM
 TRANSITION DIPOLE =   -0.000000    0.000000    0.000000    0.000000 E*BOHR
 TRANSITION DIPOLE =   -0.000000    0.000000    0.000000    0.000000 DEBYE
 OSCILLATOR STRENGTH =    0.000000
 EINSTEIN COEFFICIENTS: A=  3.8358E-20 1/SEC; B=  8.5591E-21 SEC/G

 TRANSITION BETWEEN EXCITED STATES   1 AND  5

 STATE MULTIPLICITIES=  1  1
 STATE ENERGIES =         -0.6699038068       -0.2303752270
 TRANSITION ENERGY =  2.8920E+15 [1/SEC] =    96465.37 [1/CM] =       11.96 [EV]
                            X           Y           Z           NORM
 TRANSITION DIPOLE =    0.000000   -0.000000    0.000000    0.000000 E*BOHR
 TRANSITION DIPOLE =    0.000000   -0.000000    0.000000    0.000000 DEBYE
 OSCILLATOR STRENGTH =    0.000000
 EINSTEIN COEFFICIENTS: A=  6.5291E-20 1/SEC; B=  1.4569E-20 SEC/G

 EXPECTATION VALUE DIPOLE MOMENT FOR EXCITED STATE  2

 STATE MULTIPLICITY =   1
 STATE ENERGY =         -0.4967542314
                            X           Y           Z           NORM
      STATE DIPOLE =    0.000000    0.000000    0.000000    0.000000 E*BOHR
      STATE DIPOLE =    0.000000    0.000000    0.000000    0.000000 DEBYE

 TRANSITION BETWEEN EXCITED STATES   2 AND  3

 STATE MULTIPLICITIES=  1  1
 STATE ENERGIES =         -0.4967542314       -0.2661665604
 TRANSITION ENERGY =  1.5172E+15 [1/SEC] =    50608.14 [1/CM] =        6.27 [EV]
                            X           Y           Z           NORM
 TRANSITION DIPOLE =    1.322894    0.000000   -0.000000    1.322894 E*BOHR
 TRANSITION DIPOLE =    3.362487    0.000000   -0.000000    3.362487 DEBYE
 OSCILLATOR STRENGTH =    0.269026
 EINSTEIN COEFFICIENTS: A=  4.5960E+08 1/SEC; B=  7.1024E+08 SEC/G

 TRANSITION BETWEEN EXCITED STATES   2 AND  4

 STATE MULTIPLICITIES=  1  1
 STATE ENERGIES =         -0.4967542314       -0.2303752270
 TRANSITION ENERGY =  1.7527E+15 [1/SEC] =    58463.43 [1/CM] =        7.25 [EV]
                            X           Y           Z           NORM
 TRANSITION DIPOLE =   -0.000000    0.239173    0.373671    0.443659 E*BOHR
 TRANSITION DIPOLE =   -0.000000    0.607922    0.949784    1.127678 DEBYE
 OSCILLATOR STRENGTH =    0.034955
 EINSTEIN COEFFICIENTS: A=  7.9694E+07 1/SEC; B=  7.9883E+07 SEC/G

 TRANSITION BETWEEN EXCITED STATES   2 AND  5

 STATE MULTIPLICITIES=  1  1
 STATE ENERGIES =         -0.4967542314       -0.2303752270
 TRANSITION ENERGY =  1.7527E+15 [1/SEC] =    58463.43 [1/CM] =        7.25 [EV]
                            X           Y           Z           NORM
 TRANSITION DIPOLE =   -0.000000   -0.373671    0.239173    0.443659 E*BOHR
 TRANSITION DIPOLE =   -0.000000   -0.949784    0.607922    1.127678 DEBYE
 OSCILLATOR STRENGTH =    0.034955
 EINSTEIN COEFFICIENTS: A=  7.9694E+07 1/SEC; B=  7.9883E+07 SEC/G

 EXPECTATION VALUE DIPOLE MOMENT FOR EXCITED STATE  3

 STATE MULTIPLICITY =   1
 STATE ENERGY =         -0.2661665604
                            X           Y           Z           NORM
      STATE DIPOLE =   -0.000000    0.000000   -0.000000    0.000000 E*BOHR
      STATE DIPOLE =   -0.000000    0.000000   -0.000000    0.000000 DEBYE

 TRANSITION BETWEEN EXCITED STATES   3 AND  4

 STATE MULTIPLICITIES=  1  1
 STATE ENERGIES =         -0.2661665604       -0.2303752270
 TRANSITION ENERGY =  2.3550E+14 [1/SEC] =     7855.29 [1/CM] =        0.97 [EV]
                            X           Y           Z           NORM
 TRANSITION DIPOLE =   -0.000000    0.000000    0.000000    0.000000 E*BOHR
 TRANSITION DIPOLE =   -0.000000    0.000000    0.000000    0.000000 DEBYE
 OSCILLATOR STRENGTH =    0.000000
 EINSTEIN COEFFICIENTS: A=  4.8181E-25 1/SEC; B=  1.9910E-22 SEC/G

 TRANSITION BETWEEN EXCITED STATES   3 AND  5

 STATE MULTIPLICITIES=  1  1
 STATE ENERGIES =         -0.2661665604       -0.2303752270
 TRANSITION ENERGY =  2.3550E+14 [1/SEC] =     7855.29 [1/CM] =        0.97 [EV]
                            X           Y           Z           NORM
 TRANSITION DIPOLE =   -0.000000    0.000000   -0.000000    0.000000 E*BOHR
 TRANSITION DIPOLE =   -0.000000    0.000000   -0.000000    0.000000 DEBYE
 OSCILLATOR STRENGTH =    0.000000
 EINSTEIN COEFFICIENTS: A=  1.6807E-25 1/SEC; B=  6.9453E-23 SEC/G

 EXPECTATION VALUE DIPOLE MOMENT FOR EXCITED STATE  4

 STATE MULTIPLICITY =   1
 STATE ENERGY =         -0.2303752270
                            X           Y           Z           NORM
      STATE DIPOLE =    0.000000   -0.000000   -0.000000    0.000000 E*BOHR
      STATE DIPOLE =    0.000000   -0.000000   -0.000000    0.000000 DEBYE

 TRANSITION BETWEEN EXCITED STATES   4 AND  5

 STATE MULTIPLICITIES=  1  1
 STATE ENERGIES =         -0.2303752270       -0.2303752270
 TRANSITION ENERGY =  4.3829E+00 [1/SEC] =        0.00 [1/CM] =        0.00 [EV]
                            X           Y           Z           NORM
 TRANSITION DIPOLE =    0.000000    0.000000   -0.000000    0.000000 E*BOHR
 TRANSITION DIPOLE =    0.000000    0.000000   -0.000000    0.000000 DEBYE
 OSCILLATOR STRENGTH =    0.000000
 EINSTEIN COEFFICIENTS: A=  5.0032E-65 1/SEC; B=  3.2069E-21 SEC/G

 EXPECTATION VALUE DIPOLE MOMENT FOR EXCITED STATE  5

 STATE MULTIPLICITY =   1
 STATE ENERGY =         -0.2303752270
                            X           Y           Z           NORM
      STATE DIPOLE =   -0.000000   -0.000000    0.000000    0.000000 E*BOHR
      STATE DIPOLE =   -0.000000   -0.000000    0.000000    0.000000 DEBYE

 CIS NATURAL ORBITAL OCCUPATION NUMBERS FOR EXCITED STATE    1 ARE
  1.0000 1.0000 0.0000 0.0000 0.0000 0.0000 0.0000 0.0000 0.0000 0.0000
  0.0000 0.0000 0.0000 0.0000 0.0000 0.0000 0.0000 0.0000 0.0000 0.0000
  0.0000 0.0000 0.0000 0.0000 0.0000 0.0000-0.0000-0.0000
 THERE ARE     1.0000 ELECTRONS IN PRINCIPAL CIS NATURAL ORBITALS.
 THERE ARE     1.0000 ELECTRONS IN SECONDARY CIS NATURAL ORBITALS.

          --------------------
          CIS NATURAL ORBITALS
          --------------------

                      1          2          3          4          5

                    1.0000     1.0000     0.0000     0.0000     0.0000

    1  H  1  S    0.080720   0.169468  -0.305368   0.788373  -0.285171
    2  H  1  S    0.030053   0.286055  -0.470951  -0.623608   0.941637
    3  H  1  S    1.769216   0.162312   0.735032   0.508610  -0.525537
    4  H  1  X   -0.014396   0.010027   0.085278  -0.629326   0.711855
    5  H  1  Y    0.000000   0.000000  -0.002878  -0.059219  -0.024120
    6  H  1  Z    0.000000   0.000000  -0.000204   0.163012  -0.001714
    7  H  1  X   -0.012135   0.020839  -0.051108   0.200855  -0.993781
    8  H  1  Y    0.000000   0.000000  -0.003561  -0.087865  -0.029844
    9  H  1  Z    0.000000   0.000000  -0.000253   0.119210  -0.002120
   10  H  1 XX   -0.004550   0.001811   0.008667  -0.655169  -0.130252
   11  H  1 YY    0.002275  -0.000906  -0.004334   0.327584   0.065126
   12  H  1 ZZ    0.002275  -0.000906  -0.004334   0.327584   0.065126
   13  H  1 XY   -0.000000   0.000000  -0.002058  -0.076155  -0.017244
   14  H  1 XZ   -0.000000   0.000000  -0.000146  -0.074608  -0.001225
   15  H  1 YZ    0.000000   0.000000   0.000000   0.000000   0.000000
   16  H  2  S   -0.080720   0.169468  -0.305368   0.324785  -0.285171
   17  H  2  S   -0.030053   0.286055  -0.470951  -0.238094   0.941637
   18  H  2  S   -1.769216   0.162312   0.735032  -0.184055  -0.525537
   19  H  2  X   -0.014396  -0.010027  -0.085278  -1.075630  -0.711855
   20  H  2  Y   -0.000000   0.000000  -0.002878  -0.107459  -0.024120
   21  H  2  Z   -0.000000   0.000000  -0.000204  -0.109658  -0.001714
   22  H  2  X   -0.012135  -0.020839   0.051108   0.742180   0.993781
   23  H  2  Y   -0.000000   0.000000  -0.003561  -0.118366  -0.029844
   24  H  2  Z   -0.000000   0.000000  -0.000253  -0.053195  -0.002120
   25  H  2 XX    0.004550   0.001811   0.008667  -0.066467  -0.130252
   26  H  2 YY   -0.002275  -0.000906  -0.004334   0.033233   0.065126
   27  H  2 ZZ   -0.002275  -0.000906  -0.004334   0.033233   0.065126
   28  H  2 XY   -0.000000   0.000000   0.002058   0.043008   0.017244
   29  H  2 XZ   -0.000000   0.000000   0.000146  -0.112752   0.001225
   30  H  2 YZ    0.000000   0.000000   0.000000   0.000000   0.000000

                      6          7          8          9         10

                    0.0000     0.0000     0.0000     0.0000     0.0000

    1  H  1  S   -0.121443  -0.464571  -0.084897   0.037391   0.058689
    2  H  1  S    0.012309   0.543873  -0.353417   0.109255  -9.646401
    3  H  1  S   -0.039064  -0.146128   0.187985  -0.066168   0.374029
    4  H  1  X    0.132886  -0.500809   0.333580   0.130745  -0.592765
    5  H  1  Y   -0.228686   0.061040   0.000000  -0.075875  -0.004280
    6  H  1  Z   -0.171070   0.082383   0.000000  -0.065845   0.000367
    7  H  1  X   -0.010219   0.621595   0.423683   0.034308  -5.499209
    8  H  1  Y   -0.277276   0.054906   0.000000  -0.157824  -0.003992
    9  H  1  Z   -0.179574  -0.014612   0.000000  -0.153203  -0.000135
   10  H  1 XX    0.143227   0.321010   0.171496  -0.130209  -1.251444
   11  H  1 YY   -0.071614  -0.160505  -0.085748   0.065105   0.625722
   12  H  1 ZZ   -0.071614  -0.160505  -0.085748   0.065105   0.625722
   13  H  1 XY   -0.150337  -0.004142   0.000000   0.347015   0.006006
   14  H  1 XZ   -0.047932  -0.211181   0.000000   0.430536   0.001537
   15  H  1 YZ    0.000000   0.000000   0.000000   0.000000   0.000000
   16  H  2  S    0.079454  -1.161820  -0.084897  -0.069405  -0.055764
   17  H  2  S   -0.112574   0.807846  -0.353417  -0.070487   9.643589
   18  H  2  S    0.102690  -0.401713   0.187985   0.046110  -0.372788
   19  H  2  X    0.314693   0.099288  -0.333580   0.134561  -0.593488
   20  H  2  Y   -0.209917  -0.007118   0.000000  -0.083102   0.002274
   21  H  2  Z   -0.064982  -0.302877   0.000000  -0.063746  -0.000600
   22  H  2  X   -0.238152  -0.194242  -0.423683   0.018144  -5.498022
   23  H  2  Y   -0.265409   0.011811   0.000000  -0.162393   0.000152
   24  H  2  Z   -0.112495  -0.258206   0.000000  -0.151876  -0.000746
   25  H  2 XX    0.003555   0.402186   0.171496   0.105626   1.250945
   26  H  2 YY   -0.001777  -0.201093  -0.085748  -0.052813  -0.625473
   27  H  2 ZZ   -0.001777  -0.201093  -0.085748  -0.052813  -0.625473
   28  H  2 XY    0.163233  -0.042692   0.000000  -0.351981  -0.001503
   29  H  2 XZ    0.120829  -0.053543   0.000000  -0.429093  -0.002202
   30  H  2 YZ    0.000000   0.000000   0.000000   0.000000   0.000000

                     11         12         13         14         15

                    0.0000     0.0000     0.0000     0.0000     0.0000

    1  H  1  S    0.000000   0.000000   0.099223   0.000000   0.000000
    2  H  1  S    0.000000   0.000000  -0.343748   0.000000   0.000000
    3  H  1  S    0.000000   0.000000   0.220800   0.000000   0.000000
    4  H  1  X    0.000000   0.000000  -0.357501   0.000000   0.000000
    5  H  1  Y    0.000000   0.000000   0.128172   0.000000   0.000000
    6  H  1  Z    0.000000   0.000000   0.041766   0.000000   0.000000
    7  H  1  X    0.000000   0.000000   0.174691   0.000000   0.000000
    8  H  1  Y    0.000000   0.000000   0.066159   0.000000   0.000000
    9  H  1  Z    0.000000   0.000000   0.056181   0.000000   0.000000
   10  H  1 XX    0.000000   0.000000   0.689381   0.000000   0.000000
   11  H  1 YY    0.006028   0.555042  -0.344690  -0.002367   0.692089
   12  H  1 ZZ   -0.006028  -0.555042  -0.344690   0.002367  -0.692089
   13  H  1 XY    0.000000   0.000000  -0.128892   0.000000   0.000000
   14  H  1 XZ    0.000000   0.000000   0.070395   0.000000   0.000000
   15  H  1 YZ    0.640907  -0.006961   0.000000  -0.799155  -0.002734
   16  H  2  S    0.000000   0.000000  -0.074121   0.000000   0.000000
   17  H  2  S    0.000000   0.000000  -0.219814   0.000000   0.000000
   18  H  2  S    0.000000   0.000000   0.170695   0.000000   0.000000
   19  H  2  X    0.000000   0.000000   0.084435   0.000000   0.000000
   20  H  2  Y    0.000000   0.000000  -0.179722   0.000000   0.000000
   21  H  2  Z    0.000000   0.000000   0.067835   0.000000   0.000000
   22  H  2  X    0.000000   0.000000  -0.061554   0.000000   0.000000
   23  H  2  Y    0.000000   0.000000  -0.128518   0.000000   0.000000
   24  H  2  Z    0.000000   0.000000   0.072663   0.000000   0.000000
   25  H  2 XX    0.000000   0.000000   0.662145   0.000000   0.000000
   26  H  2 YY    0.006028   0.555042  -0.331072   0.002367  -0.692089
   27  H  2 ZZ   -0.006028  -0.555042  -0.331072  -0.002367   0.692089
   28  H  2 XY    0.000000   0.000000  -0.082672   0.000000   0.000000
   29  H  2 XZ    0.000000   0.000000  -0.052482   0.000000   0.000000
   30  H  2 YZ    0.640907  -0.006961   0.000000   0.799155   0.002734

                     16         17         18         19         20

                    0.0000     0.0000     0.0000     0.0000     0.0000

    1  H  1  S    0.220110   0.000000   0.000000  -0.541704   0.000000
    2  H  1  S   -0.399391   0.000000   0.000000   0.165797   0.000000
    3  H  1  S    0.314880   0.000000   0.000000  -0.041350   0.000000
    4  H  1  X   -0.207911   0.000000   0.000000  -0.448204   0.000000
    5  H  1  Y    0.074695   0.377855  -0.757461   0.112421   0.777837
    6  H  1  Z   -0.208175  -0.757461  -0.377855  -0.012983  -0.006972
    7  H  1  X   -0.148951   0.000000   0.000000   0.030930   0.000000
    8  H  1  Y    0.105044  -0.280731   0.562763  -0.030604  -0.320413
    9  H  1  Z   -0.281765   0.562763   0.280731   0.052928   0.002872
   10  H  1 XX    0.139023   0.000000   0.000000  -0.200488   0.000000
   11  H  1 YY   -0.069511   0.000000   0.000000   0.100244   0.000000
   12  H  1 ZZ   -0.069511   0.000000   0.000000   0.100244   0.000000
   13  H  1 XY    0.026336  -0.042668   0.085533   0.255818   0.837170
   14  H  1 XZ    0.108255   0.085533   0.042668  -0.234946  -0.007504
   15  H  1 YZ    0.000000   0.000000   0.000000   0.000000   0.000000
   16  H  2  S    0.537869   0.000000   0.000000   0.319794   0.000000
   17  H  2  S   -0.288914   0.000000   0.000000   0.094334   0.000000
   18  H  2  S   -0.012166   0.000000   0.000000  -0.086565   0.000000
   19  H  2  X   -0.458107   0.000000   0.000000  -0.430061   0.000000
   20  H  2  Y    0.095497   0.377855  -0.757461  -0.237255  -0.777837
   21  H  2  Z   -0.171788  -0.757461  -0.377855   0.071832   0.006972
   22  H  2  X    0.255621   0.000000   0.000000  -0.043522   0.000000
   23  H  2  Y    0.118196  -0.280731   0.562763  -0.251699   0.320413
   24  H  2  Z   -0.258759   0.562763   0.280731   0.106556  -0.002872
   25  H  2 XX   -0.255075   0.000000   0.000000   0.112234   0.000000
   26  H  2 YY    0.127537   0.000000   0.000000  -0.056117   0.000000
   27  H  2 ZZ    0.127537   0.000000   0.000000  -0.056117   0.000000
   28  H  2 XY   -0.012043   0.042668  -0.085533  -0.496090   0.837170
   29  H  2 XZ   -0.083253  -0.085533  -0.042668   0.293225  -0.007504
   30  H  2 YZ    0.000000   0.000000   0.000000   0.000000   0.000000

                     21         22         23         24         25

                    0.0000     0.0000     0.0000     0.0000     0.0000

    1  H  1  S    0.000000  -0.251815  -1.054808   0.000000   0.000000
    2  H  1  S    0.000000   0.076301   0.281629   0.000000   0.000000
    3  H  1  S    0.000000   0.042837  -0.139930   0.000000   0.000000
    4  H  1  X    0.000000  -0.353558  -0.833421   0.000000   0.000000
    5  H  1  Y    0.006972  -0.419620   0.008378   0.327248  -0.037194
    6  H  1  Z    0.777837   0.123535  -0.058085   0.037194   0.327248
    7  H  1  X    0.000000   0.159836   0.086443   0.000000   0.000000
    8  H  1  Y   -0.002872  -0.325990   0.055590  -1.451873   0.165015
    9  H  1  Z   -0.320413   0.124928  -0.068831  -0.165015  -1.451873
   10  H  1 XX    0.000000   0.282666  -0.744574   0.000000   0.000000
   11  H  1 YY    0.000000  -0.141333   0.372287   0.000000   0.000000
   12  H  1 ZZ    0.000000  -0.141333   0.372287   0.000000   0.000000
   13  H  1 XY    0.007504   0.414653  -0.124104  -0.859737   0.097715
   14  H  1 XZ    0.837170  -0.113525   0.091172  -0.097715  -0.859737
   15  H  1 YZ    0.000000   0.000000   0.000000   0.000000   0.000000
   16  H  2  S    0.000000   0.021246   0.717682   0.000000   0.000000
   17  H  2  S    0.000000  -0.047824  -0.041564   0.000000   0.000000
   18  H  2  S    0.000000  -0.006151   0.055175   0.000000   0.000000
   19  H  2  X    0.000000  -0.130388  -0.677148   0.000000   0.000000
   20  H  2  Y   -0.006972   0.318239   0.070595  -0.327248   0.037194
   21  H  2  Z   -0.777837  -0.019723  -0.001353  -0.037194  -0.327248
   22  H  2  X    0.000000  -0.037219  -0.097094   0.000000   0.000000
   23  H  2  Y    0.002872   0.140548   0.094928   1.451873  -0.165015
   24  H  2  Z    0.320413   0.034348  -0.032960   0.165015   1.451873
   25  H  2 XX    0.000000   0.219918   1.001027   0.000000   0.000000
   26  H  2 YY    0.000000  -0.109959  -0.500513   0.000000   0.000000
   27  H  2 ZZ    0.000000  -0.109959  -0.500513   0.000000   0.000000
   28  H  2 XY    0.007504   0.092352   0.166855  -0.859737   0.097715
   29  H  2 XZ    0.837170   0.015088  -0.052190  -0.097715  -0.859737
   30  H  2 YZ    0.000000   0.000000   0.000000   0.000000   0.000000

                     26         27         28

                    0.0000    -0.0000    -0.0000

    1  H  1  S   -0.699863  -0.146647   0.131222
    2  H  1  S    0.438004   0.362402   0.040575
    3  H  1  S   -0.189755  -2.303186   0.240122
    4  H  1  X   -0.416946   0.178570  -0.473320
    5  H  1  Y    0.021505  -0.002845  -0.059844
    6  H  1  Z    0.084916  -0.028711  -0.376644
    7  H  1  X    0.192048  -1.047170   0.483573
    8  H  1  Y    0.010987  -0.001360  -0.034936
    9  H  1  Z    0.064049  -0.023316  -0.244965
   10  H  1 XX    0.263342   0.010785   0.016340
   11  H  1 YY   -0.131671  -0.005393  -0.008170
   12  H  1 ZZ   -0.131671  -0.005393  -0.008170
   13  H  1 XY   -0.191780   0.002971   0.047846
   14  H  1 XZ    0.261400   0.007764   0.243003
   15  H  1 YZ    0.000000   0.000000   0.000000
   16  H  2  S   -0.288558   0.205045  -0.637029
   17  H  2  S    0.514101  -0.400848   0.411722
   18  H  2  S   -0.240690   2.315768  -0.433283
   19  H  2  X   -0.144577   0.148540  -0.312435
   20  H  2  Y   -0.093653   0.004295   0.069437
   21  H  2  Z    0.059211   0.011645   0.354105
   22  H  2  X   -0.287550  -1.012994   0.242364
   23  H  2  Y   -0.061826   0.003154   0.046806
   24  H  2  Z    0.047796   0.002200   0.217077
   25  H  2 XX   -0.215463  -0.061710   0.125352
   26  H  2 YY    0.107732   0.030855  -0.062676
   27  H  2 ZZ    0.107732   0.030855  -0.062676
   28  H  2 XY    0.112652   0.001934   0.040987
   29  H  2 XZ   -0.279063   0.019966   0.259117
   30  H  2 YZ    0.000000   0.000000   0.000000

 THE CIS NATURAL ORBITALS HAVE BEEN PUNCHED.

 ..... DONE WITH CIS ENERGY .....

 CPU     0: STEP CPU TIME=     0.01 TOTAL CPU TIME=        0.1 (    0.0 MIN)
 TOTAL WALL CLOCK TIME=        0.8 SECONDS, CPU UTILIZATION IS  10.00%

     -------------------------------------------------------------
     CIS   PROPERTIES...FOR THE WAVEFUNCTION OF EXCITED STATE    1
                 USING THE EXPECTATION VALUE DENSITY
     -------------------------------------------------------------

          -----------------
          ENERGY COMPONENTS
          -----------------

         WAVEFUNCTION NORMALIZATION =       1.0000000000

                ONE ELECTRON ENERGY =      -1.6753782336
                TWO ELECTRON ENERGY =       0.4172391327
           NUCLEAR REPULSION ENERGY =       0.5882352941
                                      ------------------
                       TOTAL ENERGY =      -0.6699038068

 ELECTRON-ELECTRON POTENTIAL ENERGY =       0.4172391327
  NUCLEUS-ELECTRON POTENTIAL ENERGY =      -2.4721794224
   NUCLEUS-NUCLEUS POTENTIAL ENERGY =       0.5882352941
                                      ------------------
             TOTAL POTENTIAL ENERGY =      -1.4667049956
               TOTAL KINETIC ENERGY =       0.7968011888
                 VIRIAL RATIO (V/T) =       1.8407414751

          ---------------------------------------
          MULLIKEN AND LOWDIN POPULATION ANALYSES
          ---------------------------------------

               ----- POPULATIONS IN EACH AO -----
                             MULLIKEN      LOWDIN
              1  H  1  S      0.12417     0.08957
              2  H  1  S      0.26349     0.20531
              3  H  1  S      0.59451     0.41523
              4  H  1  X      0.00407     0.00460
              5  H  1  Y      0.00000     0.00000
              6  H  1  Z      0.00000     0.00000
              7  H  1  X      0.01323     0.14888
              8  H  1  Y      0.00000     0.00000
              9  H  1  Z      0.00000     0.00000
             10  H  1 XX      0.00013     0.05287
             11  H  1 YY      0.00039     0.04177
             12  H  1 ZZ      0.00000     0.04177
             13  H  1 XY      0.00000     0.00000
             14  H  1 XZ      0.00000     0.00000
             15  H  1 YZ      0.00000     0.00000
             16  H  2  S      0.12417     0.08957
             17  H  2  S      0.26349     0.20531
             18  H  2  S      0.59451     0.41523
             19  H  2  X      0.00407     0.00460
             20  H  2  Y      0.00000     0.00000
             21  H  2  Z      0.00000     0.00000
             22  H  2  X      0.01323     0.14888
             23  H  2  Y      0.00000     0.00000
             24  H  2  Z      0.00000     0.00000
             25  H  2 XX      0.00013     0.05287
             26  H  2 YY      0.00039     0.04177
             27  H  2 ZZ      0.00000     0.04177
             28  H  2 XY      0.00000     0.00000
             29  H  2 XZ      0.00000     0.00000
             30  H  2 YZ      0.00000     0.00000

          ----- MULLIKEN ATOMIC OVERLAP POPULATIONS -----
          (OFF-DIAGONAL ELEMENTS NEED TO BE MULTIPLIED BY 2)

             1           2

    1    3.6321072
    2   -2.6321072   3.6321072

          TOTAL MULLIKEN AND LOWDIN ATOMIC POPULATIONS
       ATOM         MULL.POP.    CHARGE          LOW.POP.     CHARGE
    1 H             1.000000    0.000000         1.000000   -0.000000
    2 H             1.000000   -0.000000         1.000000   -0.000000

          MULLIKEN SPHERICAL HARMONIC POPULATIONS
       ATOM           S       P       D      F      G      H      I    TOTAL
    1 H             0.98    0.02    0.00   0.00   0.00   0.00   0.00    1.00
    2 H             0.98    0.02    0.00   0.00   0.00   0.00   0.00    1.00

          ---------------------
          ELECTROSTATIC MOMENTS
          ---------------------

 POINT   1           X           Y           Z (BOHR)    CHARGE
                 0.850000    0.000000    0.000000       -0.00 (A.U.)
         DX          DY          DZ         /D/  (DEBYE)
    -0.000000   -0.000000   -0.000000    0.000000
 ...... END OF PROPERTY EVALUATION ......
 CPU     0: STEP CPU TIME=     0.00 TOTAL CPU TIME=        0.1 (    0.0 MIN)
 TOTAL WALL CLOCK TIME=        0.8 SECONDS, CPU UTILIZATION IS   9.41%
                580000  WORDS OF DYNAMIC MEMORY USED
 EXECUTION OF GAMESS TERMINATED NORMALLY Wed Apr 12 18:20:23 2017
 DDI: 263640 bytes (0.3 MB / 0 MWords) used by master data server.

 ----------------------------------------
 CPU timing information for all processes
 ========================================
 0: 0.48 + 0.51 = 0.99
 1: 0.19 + 0.24 = 0.44
 2: 0.19 + 0.29 = 0.49
 3: 0.15 + 0.25 = 0.40
 4: 0.24 + 0.36 = 0.60
 5: 0.23 + 0.23 = 0.47
 6: 0.26 + 0.29 = 0.56
 7: 0.20 + 0.22 = 0.42
 8: 0.18 + 0.40 = 0.59
 9: 0.16 + 0.23 = 0.39
 10: 0.20 + 0.29 = 0.49
 11: 0.20 + 0.16 = 0.36
 12: 0.24 + 0.30 = 0.54
 13: 0.19 + 0.17 = 0.36
 14: 0.34 + 0.15 = 0.49
 15: 0.21 + 0.14 = 0.36
 ----------------------------------------
 ddikick.x: exited gracefully.
----- accounting info -----
Files used on the master node kylin.physics.illinois.edu were:
-rw-rw-r--. 1 yyang173 yyang173     331 Apr 12 18:20 /scr/yyang173/sep1.70-cis.F05
-rw-rw-r--. 1 yyang173 yyang173  180016 Apr 12 18:20 /scr/yyang173/sep1.70-cis.F08
-rw-rw-r--. 1 yyang173 yyang173  180016 Apr 12 18:20 /scr/yyang173/sep1.70-cis.F08.001
-rw-rw-r--. 1 yyang173 yyang173  180016 Apr 12 18:20 /scr/yyang173/sep1.70-cis.F08.002
-rw-rw-r--. 1 yyang173 yyang173  180016 Apr 12 18:20 /scr/yyang173/sep1.70-cis.F08.003
-rw-rw-r--. 1 yyang173 yyang173  180016 Apr 12 18:20 /scr/yyang173/sep1.70-cis.F08.004
-rw-rw-r--. 1 yyang173 yyang173  180016 Apr 12 18:20 /scr/yyang173/sep1.70-cis.F08.005
-rw-rw-r--. 1 yyang173 yyang173  180016 Apr 12 18:20 /scr/yyang173/sep1.70-cis.F08.006
-rw-rw-r--. 1 yyang173 yyang173  180016 Apr 12 18:20 /scr/yyang173/sep1.70-cis.F08.007
-rw-rw-r--. 1 yyang173 yyang173  180016 Apr 12 18:20 /scr/yyang173/sep1.70-cis.F08.008
-rw-rw-r--. 1 yyang173 yyang173  180016 Apr 12 18:20 /scr/yyang173/sep1.70-cis.F08.009
-rw-rw-r--. 1 yyang173 yyang173  180016 Apr 12 18:20 /scr/yyang173/sep1.70-cis.F08.010
-rw-rw-r--. 1 yyang173 yyang173  180016 Apr 12 18:20 /scr/yyang173/sep1.70-cis.F08.011
-rw-rw-r--. 1 yyang173 yyang173  180016 Apr 12 18:20 /scr/yyang173/sep1.70-cis.F08.012
-rw-rw-r--. 1 yyang173 yyang173  180016 Apr 12 18:20 /scr/yyang173/sep1.70-cis.F08.013
-rw-rw-r--. 1 yyang173 yyang173  180016 Apr 12 18:20 /scr/yyang173/sep1.70-cis.F08.014
-rw-rw-r--. 1 yyang173 yyang173  180016 Apr 12 18:20 /scr/yyang173/sep1.70-cis.F08.015
-rw-rw-r--. 1 yyang173 yyang173 1636000 Apr 12 18:20 /scr/yyang173/sep1.70-cis.F10
-rw-rw-r--. 1 yyang173 yyang173    1120 Apr 12 18:20 /scr/yyang173/sep1.70-cis.F12
Wed Apr 12 18:20:26 CDT 2017
0.256u 0.108s 0:04.39 7.9%	0+0k 0+16io 0pf+0w
