----- GAMESS execution script 'rungms' -----
This job is running on host kylin.physics.illinois.edu
under operating system Linux at Wed Apr 12 18:20:27 CDT 2017
Available scratch disk space (Kbyte units) at beginning of the job is
Filesystem                    1K-blocks     Used Available Use% Mounted on
/dev/mapper/fedora_kylin-root 110123880 60480280  44601484  58% /
GAMESS temporary binary files will be written to /scr/yyang173
GAMESS supplementary output files will be written to /home/yyang173/Desktop/attempts/drag-node/hf_grid/cis/sep1.80
Copying input file sep1.80-cis.inp to your run's scratch directory...
 
Assuming a single but multicore node.
 

 Distributed Data Interface kickoff program.
 Initiating 16 compute processes on 1 nodes to run the following command:
 /opt/intel17/apps/gamess_2016R1/gamess.00.x sep1.80-cis 

          ******************************************************
          *         GAMESS VERSION = 18 AUG 2016 (R1)          *
          *             FROM IOWA STATE UNIVERSITY             *
          * M.W.SCHMIDT, K.K.BALDRIDGE, J.A.BOATZ, S.T.ELBERT, *
          *   M.S.GORDON, J.H.JENSEN, S.KOSEKI, N.MATSUNAGA,   *
          *          K.A.NGUYEN, S.J.SU, T.L.WINDUS,           *
          *       TOGETHER WITH M.DUPUIS, J.A.MONTGOMERY       *
          *         J.COMPUT.CHEM.  14, 1347-1363(1993)        *
          **************** 64 BIT INTEL VERSION ****************

  SINCE 1993, STUDENTS AND POSTDOCS WORKING AT IOWA STATE UNIVERSITY
  AND ALSO IN THEIR VARIOUS JOBS AFTER LEAVING ISU HAVE MADE IMPORTANT
  CONTRIBUTIONS TO THE CODE:
     IVANA ADAMOVIC, CHRISTINE AIKENS, YURI ALEXEEV, POOJA ARORA,
     ANDREY ASADCHEV, ROB BELL, PRADIPTA BANDYOPADHYAY, JONATHAN BENTZ,
     BRETT BODE, KURT BRORSEN, CALEB CARLIN, GALINA CHABAN, WEI CHEN,
     CHEOL HO CHOI, PAUL DAY, ALBERT DEFUSCO, NUWAN DESILVA, TIM DUDLEY,
     DMITRI FEDOROV, GRAHAM FLETCHER, MARK FREITAG, KURT GLAESEMANN,
     DAN KEMP, GRANT MERRILL, NORIYUKI MINEZAWA, JONATHAN MULLIN,
     TAKESHI NAGATA, SEAN NEDD, HEATHER NETZLOFF, BOSILJKA NJEGIC, RYAN OLSON,
     MIKE PAK, SPENCER PRUITT, LUKE ROSKOP, JIM SHOEMAKER, LYUDMILA SLIPCHENKO,
     TONY SMITH, SAROM SOK LEANG, JIE SONG, TETSUYA TAKETSUGU, SIMON WEBB,
     PENG XU, SOOHAENG YOO, FEDERICO ZAHARIEV

  ADDITIONAL CODE HAS BEEN PROVIDED BY COLLABORATORS IN OTHER GROUPS:
     IOWA STATE UNIVERSITY:
          JOE IVANIC, AARON WEST, LAIMUTIS BYTAUTAS, KLAUS RUEDENBERG
     UNIVERSITY OF TOKYO: KIMIHIKO HIRAO, TAKAHITO NAKAJIMA,
          TAKAO TSUNEDA, MUNEAKI KAMIYA, SUSUMU YANAGISAWA,
          KIYOSHI YAGI, MAHITO CHIBA, SEIKEN TOKURA, NAOAKI KAWAKAMI
     UNIVERSITY OF AARHUS: FRANK JENSEN
     UNIVERSITY OF IOWA: VISVALDAS KAIRYS, HUI LI
     NATIONAL INST. OF STANDARDS AND TECHNOLOGY: WALT STEVENS, DAVID GARMER
     UNIVERSITY OF PISA: BENEDETTA MENNUCCI, JACOPO TOMASI
     UNIVERSITY OF MEMPHIS: HENRY KURTZ, PRAKASHAN KORAMBATH
     UNIVERSITY OF ALBERTA: TOBY ZENG, MARIUSZ KLOBUKOWSKI
     UNIVERSITY OF NEW ENGLAND: MARK SPACKMAN
     MIE UNIVERSITY: HIROAKI UMEDA
     NAT. INST. OF ADVANCED INDUSTRIAL SCIENCE AND TECHNOLOGY: KAZUO KITAURA
     MICHIGAN STATE UNIVERSITY:
          KAROL KOWALSKI, MARTA WLOCH, JEFFREY GOUR, JESSE LUTZ,
          WEI LI, PIOTR PIECUCH
     UNIVERSITY OF SILESIA: MONIKA MUSIAL, STANISLAW KUCHARSKI
     FACULTES UNIVERSITAIRES NOTRE-DAME DE LA PAIX:
          OLIVIER QUINET, BENOIT CHAMPAGNE
     UNIVERSITY OF CALIFORNIA - SANTA BARBARA: BERNARD KIRTMAN
     INSTITUTE FOR MOLECULAR SCIENCE:
          KAZUYA ISHIMURA, MICHIO KATOUDA, AND SHIGERU NAGASE
     UNIVERSITY OF NOTRE DAME: ANNA POMOGAEVA, DAN CHIPMAN
     KYUSHU UNIVERSITY:
          HARUYUKI NAKANO,
          FENG LONG GU, JACEK KORCHOWIEC, MARCIN MAKOWSKI, AND YURIKO AOKI,
          HIROTOSHI MORI AND EISAKU MIYOSHI
     PENNSYLVANIA STATE UNIVERSITY:
          TZVETELIN IORDANOV, CHET SWALINA, JONATHAN SKONE,
          SHARON HAMMES-SCHIFFER
     WASEDA UNIVERSITY:
          MASATO KOBAYASHI, TOMOKO AKAMA, TSUGUKI TOUMA,
          TAKESHI YOSHIKAWA, YASUHIRO IKABATA, JUNJI SEINO,
          YUYA NAKAJIMA, HIROMI NAKAI
     NANJING UNIVERSITY: SHUHUA LI
     UNIVERSITY OF NEBRASKA:
          PEIFENG SU, DEJUN SI, NANDUN THELLAMUREGE, YALI WANG, HUI LI
     UNIVERSITY OF ZURICH: ROBERTO PEVERATI, KIM BALDRIDGE
     N. COPERNICUS UNIVERSITY AND JACKSON STATE UNIVERSITY:
          MARIA BARYSZ
     UNIVERSITY OF COPENHAGEN: Jimmy Kromann, CASPER STEINMANN
     TOKYO INSTITUTE OF TECHNOLOGY: HIROYA NAKATA
     NAGOYA UNIVERSITY: YOSHIO NISHIMOTO, STEPHAN IRLE
     MOSCOW STATE UNIVERSITY: VLADIMIR MIRONOV


 PARALLEL VERSION RUNNING ON       16 PROCESSORS IN        1 NODES.

 EXECUTION OF GAMESS BEGUN Wed Apr 12 18:20:27 2017

            ECHO OF THE FIRST FEW INPUT CARDS -
 INPUT CARD> $contrl coord=unique icharg=0 ispher=1 mult=1 runtyp=energy                    
 INPUT CARD>         scftyp=rhf cityp=cis units=bohr  $end                                  
 INPUT CARD> $basis  gbasis=cct  $end                                                       
 INPUT CARD> $guess  guess=huckel  $end                                                     
 INPUT CARD> $cis    nstate=5 $end                                                          
 INPUT CARD> $DATA                                                                          
 INPUT CARD>A molecule.                                                                     
 INPUT CARD>C1                                                                              
 INPUT CARD>H 1.00       0.00000000       0.00000000       0.00000000                       
 INPUT CARD>H 1.00       1.800000000       0.00000000       0.00000000                      
 INPUT CARD> $END                                                                           
    1000000 WORDS OF MEMORY AVAILABLE

     BASIS OPTIONS
     -------------
     GBASIS=CCT          IGAUSS=       0      POLAR=NONE    
     NDFUNC=       0     NFFUNC=       0     DIFFSP=       F
     NPFUNC=       0      DIFFS=       F     BASNAM=        


     RUN TITLE
     ---------
 A molecule.                                                                     

 THE POINT GROUP OF THE MOLECULE IS C1      
 THE ORDER OF THE PRINCIPAL AXIS IS     0

 ATOM      ATOMIC                      COORDINATES (BOHR)
           CHARGE         X                   Y                   Z
 H           1.0     0.0000000000        0.0000000000        0.0000000000
 H           1.0     1.8000000000        0.0000000000        0.0000000000

          INTERNUCLEAR DISTANCES (ANGS.)
          ------------------------------

                1 H          2 H     

   1 H       0.0000000    0.9525190 *
   2 H       0.9525190 *  0.0000000  

  * ... LESS THAN  3.000


     ATOMIC BASIS SET
     ----------------
 THE CONTRACTED PRIMITIVE FUNCTIONS HAVE BEEN UNNORMALIZED
 THE CONTRACTED BASIS FUNCTIONS ARE NOW NORMALIZED TO UNITY

  SHELL TYPE  PRIMITIVE        EXPONENT          CONTRACTION COEFFICIENT(S)

 H         

      1   S       1            33.8700000    0.025494863235
      1   S       2             5.0950000    0.190362765893
      1   S       3             1.1590000    0.852162022245

      2   S       4             0.3258000    1.000000000000

      3   S       5             0.1027000    1.000000000000

      4   P       6             1.4070000    1.000000000000

      5   P       7             0.3880000    1.000000000000

      6   D       8             1.0570000    1.000000000000

 H         

      7   S       9            33.8700000    0.025494863235
      7   S      10             5.0950000    0.190362765893
      7   S      11             1.1590000    0.852162022245

      8   S      12             0.3258000    1.000000000000

      9   S      13             0.1027000    1.000000000000

     10   P      14             1.4070000    1.000000000000

     11   P      15             0.3880000    1.000000000000

     12   D      16             1.0570000    1.000000000000

 TOTAL NUMBER OF BASIS SET SHELLS             =   12
 NUMBER OF CARTESIAN GAUSSIAN BASIS FUNCTIONS =   30
 NOTE: THIS RUN WILL RESTRICT THE MO VARIATION SPACE TO SPHERICAL HARMONICS.
 THE NUMBER OF ORBITALS KEPT IN THE VARIATIONAL SPACE WILL BE PRINTED LATER.
 NUMBER OF ELECTRONS                          =    2
 CHARGE OF MOLECULE                           =    0
 SPIN MULTIPLICITY                            =    1
 NUMBER OF OCCUPIED ORBITALS (ALPHA)          =    1
 NUMBER OF OCCUPIED ORBITALS (BETA )          =    1
 TOTAL NUMBER OF ATOMS                        =    2
 THE NUCLEAR REPULSION ENERGY IS        0.5555555556

 THIS MOLECULE IS RECOGNIZED AS BEING LINEAR,
 ORBITAL LZ DEGENERACY TOLERANCE ETOLLZ= 1.00E-06

     $CONTRL OPTIONS
     ---------------
 SCFTYP=RHF          RUNTYP=ENERGY       EXETYP=RUN     
 MPLEVL=       0     CITYP =CIS          CCTYP =NONE         VBTYP =NONE    
 DFTTYP=NONE         TDDFT =NONE    
 MULT  =       1     ICHARG=       0     NZVAR =       0     COORD =UNIQUE  
 PP    =NONE         RELWFN=NONE         LOCAL =NONE         NUMGRD=       F
 ISPHER=       1     NOSYM =       0     MAXIT =      30     UNITS =BOHR    
 PLTORB=       F     MOLPLT=       F     AIMPAC=       F     FRIEND=        
 NPRINT=       7     IREST =       0     GEOM  =INPUT   
 NORMF =       0     NORMP =       0     ITOL  =      20     ICUT  =       9
 INTTYP=BEST         GRDTYP=BEST         QMTTOL= 1.0E-06

     $SYSTEM OPTIONS
     ---------------
  REPLICATED MEMORY=     1000000 WORDS (ON EVERY NODE).
 DISTRIBUTED MEMDDI=           0 MILLION WORDS IN AGGREGATE,
 MEMDDI DISTRIBUTED OVER  16 PROCESSORS IS           0 WORDS/PROCESSOR.
 TOTAL MEMORY REQUESTED ON EACH PROCESSOR=     1000000 WORDS.
 TIMLIM=      525600.00 MINUTES, OR     365.0 DAYS.
 PARALL= T  BALTYP=  DLB     KDIAG=    0  COREFL= F
 MXSEQ2=     300 MXSEQ3=     150  mem10=         0

          ----------------
          PROPERTIES INPUT
          ----------------

     MOMENTS            FIELD           POTENTIAL          DENSITY
 IEMOM =       1   IEFLD =       0   IEPOT =       0   IEDEN =       0
 WHERE =COMASS     WHERE =NUCLEI     WHERE =NUCLEI     WHERE =NUCLEI  
 OUTPUT=BOTH       OUTPUT=BOTH       OUTPUT=BOTH       OUTPUT=BOTH    
 IEMINT=       0   IEFINT=       0                     IEDINT=       0
                                                       MORB  =       0
          EXTRAPOLATION IN EFFECT
          SOSCF IN EFFECT
 ORBITAL PRINTING OPTION: NPREO=     1    30     2     1

     -------------------------------
     INTEGRAL TRANSFORMATION OPTIONS
     -------------------------------
     NWORD  =            0
     CUTOFF = 1.0E-09     MPTRAN =       0
     DIRTRF =       F     AOINTS =DUP     

          ----------------------
          INTEGRAL INPUT OPTIONS
          ----------------------
 NOPK  =       1 NORDER=       0 SCHWRZ=       F

     ------------------------------
     CI-SINGLES CONTROL INFORMATION
     ------------------------------
     NACORE =        0  NBCORE   =        0
     NSTATE =        5  IROOT    =        1
     HAMTYP = SAPS      SAP MULT =        1
     DIAGZN = DAVID     MXVEC    =       40
     NDAVIT =       50  DAVCVG   = 1.00E-05
     CISPRP =        F  NGSVEC   =       10
     MNMEDG =        F  MNMEOP   =        F
     CHFSLV = CONJG     RDCISV   =        F
     DGAPRX =        T

     NUMBER OF CORE -A-  ORBITALS =     0
     NUMBER OF CORE -B-  ORBITALS =     0
     NUMBER OF OCC. -A-  ORBITALS =     1
     NUMBER OF OCC. -B-  ORBITALS =     1
     NUMBER OF MOLECULAR ORBITALS =    30
     NUMBER OF   BASIS  FUNCTIONS =    30


     ------------------------------------------
     THE POINT GROUP IS C1 , NAXIS= 0, ORDER= 1
     ------------------------------------------

 -- VARIATIONAL SPACE WILL BE RESTRICTED TO PURE SPHERICAL HARMONICS ONLY --
 AFTER EXCLUDING CONTAMINANT COMBINATIONS FROM THE CARTESIAN GAUSSIAN BASIS
 SET, THE NUMBER OF SPHERICAL HARMONICS KEPT IN THE VARIATION SPACE IS   28

     DIMENSIONS OF THE SYMMETRY SUBSPACES ARE
 A   =   28

 ..... DONE SETTING UP THE RUN .....
 CPU     0: STEP CPU TIME=     0.02 TOTAL CPU TIME=        0.0 (    0.0 MIN)
 TOTAL WALL CLOCK TIME=        0.0 SECONDS, CPU UTILIZATION IS  50.00%

          ********************
          1 ELECTRON INTEGRALS
          ********************
 ...... END OF ONE-ELECTRON INTEGRALS ......
 CPU     0: STEP CPU TIME=     0.00 TOTAL CPU TIME=        0.0 (    0.0 MIN)
 TOTAL WALL CLOCK TIME=        0.1 SECONDS, CPU UTILIZATION IS  20.00%

          -------------
          GUESS OPTIONS
          -------------
          GUESS =HUCKEL            NORB  =       0          NORDER=       0
          MIX   =       F          PRTMO =       F          PUNMO =       F
          TOLZ  = 1.0E-08          TOLE  = 1.0E-05
          SYMDEN=       F          PURIFY=       F

 INITIAL GUESS ORBITALS GENERATED BY HUCKEL   ROUTINE.
 HUCKEL GUESS REQUIRES      8082 WORDS.

 STATISTICS FOR GENERATION OF SYMMETRY ORBITAL -Q- MATRIX
 NUMBER OF CARTESIAN ATOMIC ORBITALS=         30
 NUMBER OF SPHERICAL CONTAMINANTS DROPPED=     2
 NUMBER OF LINEARLY DEPENDENT MOS DROPPED=     0
 TOTAL NUMBER OF MOS IN VARIATION SPACE=      28

 SYMMETRIES FOR INITIAL GUESS ORBITALS FOLLOW.   BOTH SET(S).
     1 ORBITALS ARE OCCUPIED (    0 CORE ORBITALS).
     1=A        2=A        3=A        4=A        5=A        6=A        7=A   
     8=A        9=A       10=A       11=A   
 ...... END OF INITIAL ORBITAL SELECTION ......
 CPU     0: STEP CPU TIME=     0.00 TOTAL CPU TIME=        0.0 (    0.0 MIN)
 TOTAL WALL CLOCK TIME=        0.1 SECONDS, CPU UTILIZATION IS  16.67%

                    ----------------------
                    AO INTEGRAL TECHNOLOGY
                    ----------------------
     S,P,L SHELL ROTATED AXIS INTEGRALS, REPROGRAMMED BY
        KAZUYA ISHIMURA (IMS) AND JOSE SIERRA (SYNSTAR).
     S,P,D,L SHELL ROTATED AXIS INTEGRALS PROGRAMMED BY
        KAZUYA ISHIMURA (INSTITUTE FOR MOLECULAR SCIENCE).
     S,P,D,F,G SHELL TO TOTAL QUARTET ANGULAR MOMENTUM SUM 5,
        ERIC PROGRAM BY GRAHAM FLETCHER (ELORET AND NASA ADVANCED
        SUPERCOMPUTING DIVISION, AMES RESEARCH CENTER).
     S,P,D,F,G,L SHELL GENERAL RYS QUADRATURE PROGRAMMED BY
        MICHEL DUPUIS (PACIFIC NORTHWEST NATIONAL LABORATORY).

          --------------------
          2 ELECTRON INTEGRALS
          --------------------

 THE -PK- OPTION IS OFF, THE INTEGRALS ARE NOT IN SUPERMATRIX FORM.
 STORING   15000 INTEGRALS/RECORD ON DISK, USING 12 BYTES/INTEGRAL.
 TWO ELECTRON INTEGRAL EVALUATION REQUIRES   90474 WORDS OF MEMORY.
 II,JST,KST,LST =  1  1  1  1 NREC =         1 INTLOC =    1
 II,JST,KST,LST =  2  1  1  1 NREC =         1 INTLOC =    2
 II,JST,KST,LST =  3  1  1  1 NREC =         1 INTLOC =    6
 II,JST,KST,LST =  4  1  1  1 NREC =         1 INTLOC =   21
 II,JST,KST,LST =  5  1  1  1 NREC =         1 INTLOC =   21
 II,JST,KST,LST =  6  1  1  1 NREC =         1 INTLOC =   21
 II,JST,KST,LST =  7  1  1  1 NREC =         1 INTLOC =  102
 II,JST,KST,LST =  8  1  1  1 NREC =         1 INTLOC =  102
 II,JST,KST,LST =  9  1  1  1 NREC =         1 INTLOC =  251
 II,JST,KST,LST = 10  1  1  1 NREC =         1 INTLOC =  251
 II,JST,KST,LST = 11  1  1  1 NREC =         1 INTLOC =  573
 II,JST,KST,LST = 12  1  1  1 NREC =         1 INTLOC =  573
 TOTAL NUMBER OF NONZERO TWO-ELECTRON INTEGRALS =               28697
         16 INTEGRAL RECORDS WERE STORED ON DISK FILE  8.
  ...... END OF TWO-ELECTRON INTEGRALS .....
 CPU     0: STEP CPU TIME=     0.02 TOTAL CPU TIME=        0.0 (    0.0 MIN)
 TOTAL WALL CLOCK TIME=        0.2 SECONDS, CPU UTILIZATION IS  25.00%

          --------------------------
                 RHF SCF CALCULATION
          --------------------------

     NUCLEAR ENERGY =         0.5555555556
     MAXIT =   30     NPUNCH=    2
     EXTRAP=T  DAMP=F  SHIFT=F  RSTRCT=F  DIIS=F  DEM=F  SOSCF=T
     DENSITY MATRIX CONV=  1.00E-06
     SOSCF WILL OPTIMIZE      27 ORBITAL ROTATIONS, SOGTOL=   0.250
     MEMORY REQUIRED FOR RHF ITERS=     36828 WORDS.

 ITER EX DEM     TOTAL ENERGY        E CHANGE  DENSITY CHANGE     ORB. GRAD
   1  0  0       -1.0822782535    -1.0822782535   0.066997234   0.000000000
          ---------------START SECOND ORDER SCF---------------
   2  1  0       -1.1090721143    -0.0267938608   0.021742320   0.018060302
   3  2  0       -1.1103473370    -0.0012752227   0.006687881   0.003910875
   4  3  0       -1.1104098224    -0.0000624854   0.000064428   0.000157769
   5  4  0       -1.1104098645    -0.0000000421   0.000014522   0.000018609
   6  5  0       -1.1104098654    -0.0000000009   0.000000270   0.000000731
   7  6  0       -1.1104098654    -0.0000000000   0.000000083   0.000000149

          -----------------
          DENSITY CONVERGED
          -----------------
     TIME TO FORM FOCK OPERATORS=       0.0 SECONDS (       0.0 SEC/ITER)
     TIME TO SOLVE SCF EQUATIONS=       0.0 SECONDS (       0.0 SEC/ITER)

 FINAL RHF ENERGY IS       -1.1104098654 AFTER   7 ITERATIONS

 LZ VALUE ANALYSIS FOR THE MOS
 ----------------------------------------
 MO     1 (    1) HAS LZ(WEIGHT)= 0.00(100.0%) 
 MO     2 (    2) HAS LZ(WEIGHT)= 0.00(100.0%) 
 MO     3 (    3) HAS LZ(WEIGHT)= 0.00(100.0%) 
 MO     4 (    4) HAS LZ(WEIGHT)= 0.00(100.0%) 
 MO     5 (    5) HAS LZ(WEIGHT)= 0.00(100.0%) 
 MO     6 (    5) HAS LZ(WEIGHT)= 0.00(100.0%) 
 MO     7 (    6) HAS LZ(WEIGHT)= 0.00(100.0%) 
 MO     8 (    7) HAS LZ(WEIGHT)= 0.00(100.0%) 
 MO     9 (    7) HAS LZ(WEIGHT)= 0.00(100.0%) 
 MO    10 (    8) HAS LZ(WEIGHT)= 0.00(100.0%) 
 MO    11 (    9) HAS LZ(WEIGHT)= 0.00(100.0%) 
 MO    12 (   10) HAS LZ(WEIGHT)= 0.00(100.0%) 
 MO    13 (   11) HAS LZ(WEIGHT)= 0.00(100.0%) 
 MO    14 (   11) HAS LZ(WEIGHT)= 0.00(100.0%) 
 MO    15 (   12) HAS LZ(WEIGHT)= 0.00(100.0%) 
 MO    16 (   12) HAS LZ(WEIGHT)= 0.00(100.0%) 
 MO    17 (   13) HAS LZ(WEIGHT)= 0.00(100.0%) 
 MO    18 (   14) HAS LZ(WEIGHT)= 0.00(100.0%) 
 MO    19 (   14) HAS LZ(WEIGHT)= 0.00(100.0%) 
 MO    20 (   15) HAS LZ(WEIGHT)= 0.00(100.0%) 
 MO    21 (   15) HAS LZ(WEIGHT)= 0.00(100.0%) 
 MO    22 (   16) HAS LZ(WEIGHT)= 0.00(100.0%) 
 MO    23 (   16) HAS LZ(WEIGHT)= 0.00(100.0%) 
 MO    24 (   17) HAS LZ(WEIGHT)= 0.00(100.0%) 
 MO    25 (   18) HAS LZ(WEIGHT)= 0.00(100.0%) 
 MO    26 (   18) HAS LZ(WEIGHT)= 0.00(100.0%) 
 MO    27 (   19) HAS LZ(WEIGHT)= 0.00(100.0%) 
 MO    28 (   20) HAS LZ(WEIGHT)= 0.00(100.0%) 

          ------------
          EIGENVECTORS
          ------------

                      1          2          3          4          5
                   -0.5372     0.1331     0.3242     0.5626     0.6743
                     A          A          A          A          A   
    1  H  1  S    0.164851   0.099282  -0.048501  -0.106193   0.000000
    2  H  1  S    0.285929   0.026965  -0.804405  -1.069005   0.000000
    3  H  1  S    0.171198   1.684457   0.881914   1.954877   0.000000
    4  H  1  X    0.009226  -0.016667  -0.009987  -0.021797   0.000000
    5  H  1  Y    0.000000   0.000000   0.000000   0.000000  -0.025031
    6  H  1  Z    0.000000   0.000000   0.000000   0.000000  -0.055414
    7  H  1  X    0.021718   0.001164   0.007011   0.260875   0.000000
    8  H  1  Y    0.000000   0.000000   0.000000   0.000000   0.249315
    9  H  1  Z    0.000000   0.000000   0.000000   0.000000   0.551943
   10  H  1 XX    0.002061  -0.005425   0.008446  -0.010600   0.000000
   11  H  1 YY   -0.001031   0.002713  -0.004223   0.005300   0.000000
   12  H  1 ZZ   -0.001031   0.002713  -0.004223   0.005300   0.000000
   13  H  1 XY    0.000000   0.000000   0.000000   0.000000  -0.005942
   14  H  1 XZ    0.000000   0.000000   0.000000   0.000000  -0.013154
   15  H  1 YZ    0.000000   0.000000   0.000000   0.000000   0.000000
   16  H  2  S    0.164851  -0.099282  -0.048501   0.106193   0.000000
   17  H  2  S    0.285929  -0.026965  -0.804405   1.069005   0.000000
   18  H  2  S    0.171198  -1.684457   0.881914  -1.954877   0.000000
   19  H  2  X   -0.009226  -0.016667   0.009987  -0.021797   0.000000
   20  H  2  Y    0.000000   0.000000   0.000000   0.000000  -0.025031
   21  H  2  Z    0.000000   0.000000   0.000000   0.000000  -0.055414
   22  H  2  X   -0.021718   0.001164  -0.007011   0.260875   0.000000
   23  H  2  Y    0.000000   0.000000   0.000000   0.000000   0.249315
   24  H  2  Z    0.000000   0.000000   0.000000   0.000000   0.551943
   25  H  2 XX    0.002061   0.005425   0.008446   0.010600   0.000000
   26  H  2 YY   -0.001031  -0.002713  -0.004223  -0.005300   0.000000
   27  H  2 ZZ   -0.001031  -0.002713  -0.004223  -0.005300   0.000000
   28  H  2 XY    0.000000   0.000000   0.000000   0.000000   0.005942
   29  H  2 XZ    0.000000   0.000000   0.000000   0.000000   0.013154
   30  H  2 YZ    0.000000   0.000000   0.000000   0.000000   0.000000

                      6          7          8          9         10
                    0.6743     1.0260     1.0748     1.0748     1.4836
                     A          A          A          A          A   
    1  H  1  S    0.000000   0.019354   0.000000   0.000000   0.003005
    2  H  1  S    0.000000  -0.616794   0.000000   0.000000  -5.024823
    3  H  1  S    0.000000   0.322975   0.000000   0.000000  -0.561068
    4  H  1  X    0.000000  -0.094441   0.000000   0.000000   0.026987
    5  H  1  Y   -0.055414   0.000000  -0.070467   0.055717   0.000000
    6  H  1  Z    0.025031   0.000000   0.055717   0.070467   0.000000
    7  H  1  X    0.000000   0.846990   0.000000   0.000000  -3.694320
    8  H  1  Y    0.551943   0.000000   0.882317  -0.697630   0.000000
    9  H  1  Z   -0.249315   0.000000  -0.697630  -0.882317   0.000000
   10  H  1 XX    0.000000   0.005679   0.000000   0.000000  -0.249757
   11  H  1 YY    0.000000  -0.002839   0.000000   0.000000   0.124878
   12  H  1 ZZ    0.000000  -0.002839   0.000000   0.000000   0.124878
   13  H  1 XY   -0.013154   0.000000   0.026338  -0.020825   0.000000
   14  H  1 XZ    0.005942   0.000000  -0.020825  -0.026338   0.000000
   15  H  1 YZ    0.000000   0.000000   0.000000   0.000000   0.000000
   16  H  2  S    0.000000   0.019354   0.000000   0.000000  -0.003005
   17  H  2  S    0.000000  -0.616794   0.000000   0.000000   5.024823
   18  H  2  S    0.000000   0.322975   0.000000   0.000000   0.561068
   19  H  2  X    0.000000   0.094441   0.000000   0.000000   0.026987
   20  H  2  Y   -0.055414   0.000000   0.070467  -0.055717   0.000000
   21  H  2  Z    0.025031   0.000000  -0.055717  -0.070467   0.000000
   22  H  2  X    0.000000  -0.846990   0.000000   0.000000  -3.694320
   23  H  2  Y    0.551943   0.000000  -0.882317   0.697630   0.000000
   24  H  2  Z   -0.249315   0.000000   0.697630   0.882317   0.000000
   25  H  2 XX    0.000000   0.005679   0.000000   0.000000   0.249757
   26  H  2 YY    0.000000  -0.002839   0.000000   0.000000  -0.124878
   27  H  2 ZZ    0.000000  -0.002839   0.000000   0.000000  -0.124878
   28  H  2 XY    0.013154   0.000000   0.026338  -0.020825   0.000000
   29  H  2 XZ   -0.005942   0.000000  -0.020825  -0.026338   0.000000
   30  H  2 YZ    0.000000   0.000000   0.000000   0.000000   0.000000

                     11         12         13         14         15
                    2.5030     2.5383     3.1925     3.1925     3.2620
                     A          A          A          A          A   
    1  H  1  S   -0.989449  -1.083616   0.000000   0.000000   0.000000
    2  H  1  S    1.079542   4.099214   0.000000   0.000000   0.000000
    3  H  1  S   -0.425875  -0.952399   0.000000   0.000000   0.000000
    4  H  1  X   -0.097331   0.180587   0.000000   0.000000   0.000000
    5  H  1  Y    0.000000   0.000000   0.000000   0.000000  -0.040993
    6  H  1  Z    0.000000   0.000000   0.000000   0.000000   0.383745
    7  H  1  X    0.102510   1.615872   0.000000   0.000000   0.000000
    8  H  1  Y    0.000000   0.000000   0.000000   0.000000   0.029214
    9  H  1  Z    0.000000   0.000000   0.000000   0.000000  -0.273472
   10  H  1 XX   -0.171182   0.359888   0.000000   0.000000   0.000000
   11  H  1 YY    0.085591  -0.179944   0.563244  -0.020819   0.000000
   12  H  1 ZZ    0.085591  -0.179944  -0.563244   0.020819   0.000000
   13  H  1 XY    0.000000   0.000000   0.000000   0.000000  -0.053661
   14  H  1 XZ    0.000000   0.000000   0.000000   0.000000   0.502328
   15  H  1 YZ    0.000000   0.000000   0.024040   0.650378   0.000000
   16  H  2  S   -0.989449   1.083616   0.000000   0.000000   0.000000
   17  H  2  S    1.079542  -4.099214   0.000000   0.000000   0.000000
   18  H  2  S   -0.425875   0.952399   0.000000   0.000000   0.000000
   19  H  2  X    0.097331   0.180587   0.000000   0.000000   0.000000
   20  H  2  Y    0.000000   0.000000   0.000000   0.000000  -0.040993
   21  H  2  Z    0.000000   0.000000   0.000000   0.000000   0.383745
   22  H  2  X   -0.102510   1.615872   0.000000   0.000000   0.000000
   23  H  2  Y    0.000000   0.000000   0.000000   0.000000   0.029214
   24  H  2  Z    0.000000   0.000000   0.000000   0.000000  -0.273472
   25  H  2 XX   -0.171182  -0.359888   0.000000   0.000000   0.000000
   26  H  2 YY    0.085591   0.179944   0.563244  -0.020819   0.000000
   27  H  2 ZZ    0.085591   0.179944  -0.563244   0.020819   0.000000
   28  H  2 XY    0.000000   0.000000   0.000000   0.000000   0.053661
   29  H  2 XZ    0.000000   0.000000   0.000000   0.000000  -0.502328
   30  H  2 YZ    0.000000   0.000000   0.024040   0.650378   0.000000

                     16         17         18         19         20
                    3.2620     3.5129     3.8673     3.8673     3.9630
                     A          A          A          A          A   
    1  H  1  S    0.000000  -0.243339   0.000000   0.000000   0.000000
    2  H  1  S    0.000000   0.386543   0.000000   0.000000   0.000000
    3  H  1  S    0.000000  -0.151202   0.000000   0.000000   0.000000
    4  H  1  X    0.000000   0.807762   0.000000   0.000000   0.000000
    5  H  1  Y   -0.383745   0.000000   0.000000   0.000000  -0.333976
    6  H  1  Z   -0.040993   0.000000   0.000000   0.000000   0.731979
    7  H  1  X    0.000000  -0.579850   0.000000   0.000000   0.000000
    8  H  1  Y    0.273472   0.000000   0.000000   0.000000   0.146113
    9  H  1  Z    0.029214   0.000000   0.000000   0.000000  -0.320237
   10  H  1 XX    0.000000   0.003202   0.000000   0.000000   0.000000
   11  H  1 YY    0.000000  -0.001601   0.676071   0.022180   0.000000
   12  H  1 ZZ    0.000000  -0.001601  -0.676071  -0.022180   0.000000
   13  H  1 XY   -0.502328   0.000000   0.000000   0.000000   0.139906
   14  H  1 XZ   -0.053661   0.000000   0.000000   0.000000  -0.306633
   15  H  1 YZ    0.000000   0.000000   0.025611  -0.780660   0.000000
   16  H  2  S    0.000000  -0.243339   0.000000   0.000000   0.000000
   17  H  2  S    0.000000   0.386543   0.000000   0.000000   0.000000
   18  H  2  S    0.000000  -0.151202   0.000000   0.000000   0.000000
   19  H  2  X    0.000000  -0.807762   0.000000   0.000000   0.000000
   20  H  2  Y   -0.383745   0.000000   0.000000   0.000000  -0.333976
   21  H  2  Z   -0.040993   0.000000   0.000000   0.000000   0.731979
   22  H  2  X    0.000000   0.579850   0.000000   0.000000   0.000000
   23  H  2  Y    0.273472   0.000000   0.000000   0.000000   0.146113
   24  H  2  Z    0.029214   0.000000   0.000000   0.000000  -0.320237
   25  H  2 XX    0.000000   0.003202   0.000000   0.000000   0.000000
   26  H  2 YY    0.000000  -0.001601  -0.676071  -0.022180   0.000000
   27  H  2 ZZ    0.000000  -0.001601   0.676071   0.022180   0.000000
   28  H  2 XY    0.502328   0.000000   0.000000   0.000000  -0.139906
   29  H  2 XZ    0.053661   0.000000   0.000000   0.000000   0.306633
   30  H  2 YZ    0.000000   0.000000  -0.025611   0.780660   0.000000

                     21         22         23         24         25
                    3.9630     3.9978     3.9978     4.1402     5.0367
                     A          A          A          A          A   
    1  H  1  S    0.000000   0.000000   0.000000  -0.194411   0.000000
    2  H  1  S    0.000000   0.000000   0.000000  -3.508237   0.000000
    3  H  1  S    0.000000   0.000000   0.000000  -0.338384   0.000000
    4  H  1  X    0.000000   0.000000   0.000000   0.315085   0.000000
    5  H  1  Y    0.731979   0.815910  -0.072621   0.000000  -0.031785
    6  H  1  Z    0.333976   0.072621   0.815910   0.000000   0.438928
    7  H  1  X    0.000000   0.000000   0.000000  -2.637131   0.000000
    8  H  1  Y   -0.320237  -0.837887   0.074577   0.000000  -0.023142
    9  H  1  Z   -0.146113  -0.074577  -0.837887   0.000000   0.319570
   10  H  1 XX    0.000000   0.000000   0.000000  -0.977486   0.000000
   11  H  1 YY    0.000000   0.000000   0.000000   0.488743   0.000000
   12  H  1 ZZ    0.000000   0.000000   0.000000   0.488743   0.000000
   13  H  1 XY   -0.306633  -0.430960   0.038358   0.000000  -0.077383
   14  H  1 XZ   -0.139906  -0.038358  -0.430960   0.000000   1.068594
   15  H  1 YZ    0.000000   0.000000   0.000000   0.000000   0.000000
   16  H  2  S    0.000000   0.000000   0.000000   0.194411   0.000000
   17  H  2  S    0.000000   0.000000   0.000000   3.508237   0.000000
   18  H  2  S    0.000000   0.000000   0.000000   0.338384   0.000000
   19  H  2  X    0.000000   0.000000   0.000000   0.315085   0.000000
   20  H  2  Y    0.731979  -0.815910   0.072621   0.000000   0.031785
   21  H  2  Z    0.333976  -0.072621  -0.815910   0.000000  -0.438928
   22  H  2  X    0.000000   0.000000   0.000000  -2.637131   0.000000
   23  H  2  Y   -0.320237   0.837887  -0.074577   0.000000   0.023142
   24  H  2  Z   -0.146113   0.074577   0.837887   0.000000  -0.319570
   25  H  2 XX    0.000000   0.000000   0.000000   0.977486   0.000000
   26  H  2 YY    0.000000   0.000000   0.000000  -0.488743   0.000000
   27  H  2 ZZ    0.000000   0.000000   0.000000  -0.488743   0.000000
   28  H  2 XY    0.306633  -0.430960   0.038358   0.000000  -0.077383
   29  H  2 XZ    0.139906  -0.038358  -0.430960   0.000000   1.068594
   30  H  2 YZ    0.000000   0.000000   0.000000   0.000000   0.000000

                     26         27         28
                    5.0367     5.0911     6.3167
                     A          A          A   
    1  H  1  S    0.000000  -0.699832  -0.314148
    2  H  1  S    0.000000   0.260049  -3.411943
    3  H  1  S    0.000000  -0.014612   0.378031
    4  H  1  X    0.000000  -0.498781  -1.333412
    5  H  1  Y    0.438928   0.000000   0.000000
    6  H  1  Z    0.031785   0.000000   0.000000
    7  H  1  X    0.000000   0.573221  -1.700383
    8  H  1  Y    0.319570   0.000000   0.000000
    9  H  1  Z    0.023142   0.000000   0.000000
   10  H  1 XX    0.000000   0.841140  -1.173554
   11  H  1 YY    0.000000  -0.420570   0.586777
   12  H  1 ZZ    0.000000  -0.420570   0.586777
   13  H  1 XY    1.068594   0.000000   0.000000
   14  H  1 XZ    0.077383   0.000000   0.000000
   15  H  1 YZ    0.000000   0.000000   0.000000
   16  H  2  S    0.000000  -0.699832   0.314148
   17  H  2  S    0.000000   0.260049   3.411943
   18  H  2  S    0.000000  -0.014612  -0.378031
   19  H  2  X    0.000000   0.498781  -1.333412
   20  H  2  Y   -0.438928   0.000000   0.000000
   21  H  2  Z   -0.031785   0.000000   0.000000
   22  H  2  X    0.000000  -0.573221  -1.700383
   23  H  2  Y   -0.319570   0.000000   0.000000
   24  H  2  Z   -0.023142   0.000000   0.000000
   25  H  2 XX    0.000000   0.841140   1.173554
   26  H  2 YY    0.000000  -0.420570  -0.586777
   27  H  2 ZZ    0.000000  -0.420570  -0.586777
   28  H  2 XY    1.068594   0.000000   0.000000
   29  H  2 XZ    0.077383   0.000000   0.000000
   30  H  2 YZ    0.000000   0.000000   0.000000
 ...... END OF RHF CALCULATION ......
 CPU     0: STEP CPU TIME=     0.01 TOTAL CPU TIME=        0.0 (    0.0 MIN)
 TOTAL WALL CLOCK TIME=        0.5 SECONDS, CPU UTILIZATION IS  10.64%

     ----------------------------------------------------------------
     PROPERTY VALUES FOR THE RHF   SELF-CONSISTENT FIELD WAVEFUNCTION
     ----------------------------------------------------------------

          -----------------
          ENERGY COMPONENTS
          -----------------

         WAVEFUNCTION NORMALIZATION =       1.0000000000

                ONE ELECTRON ENERGY =      -2.2574861332
                TWO ELECTRON ENERGY =       0.5915207122
           NUCLEAR REPULSION ENERGY =       0.5555555556
                                      ------------------
                       TOTAL ENERGY =      -1.1104098654

 ELECTRON-ELECTRON POTENTIAL ENERGY =       0.5915207122
  NUCLEUS-ELECTRON POTENTIAL ENERGY =      -3.2055203728
   NUCLEUS-NUCLEUS POTENTIAL ENERGY =       0.5555555556
                                      ------------------
             TOTAL POTENTIAL ENERGY =      -2.0584441050
               TOTAL KINETIC ENERGY =       0.9480342396
                 VIRIAL RATIO (V/T) =       2.1712761196

  ...... PI ENERGY ANALYSIS ......

 ENERGY ANALYSIS:
            FOCK ENERGY=     -1.0744447276
          BARE H ENERGY=     -2.2574861332
     ELECTRONIC ENERGY =     -1.6659654304
         KINETIC ENERGY=      0.9480342396
          N-N REPULSION=      0.5555555556
           TOTAL ENERGY=     -1.1104098748
        SIGMA PART(1+2)=     -1.6659654304
               (K,V1,2)=      0.9480342396     -3.2055203728      0.5915207028
           PI PART(1+2)=      0.0000000000
               (K,V1,2)=      0.0000000000      0.0000000000      0.0000000000
  SIGMA SKELETON, ERROR=     -1.1104098748      0.0000000000
             MIXED PART= 0.00000E+00 0.00000E+00 0.00000E+00 0.00000E+00
 ...... END OF PI ENERGY ANALYSIS ......

          ---------------------------------------
          MULLIKEN AND LOWDIN POPULATION ANALYSES
          ---------------------------------------

               ----- POPULATIONS IN EACH AO -----
                             MULLIKEN      LOWDIN
              1  H  1  S      0.19741     0.15624
              2  H  1  S      0.50108     0.29546
              3  H  1  S      0.28426     0.29025
              4  H  1  X      0.00274     0.00261
              5  H  1  Y      0.00000     0.00000
              6  H  1  Z      0.00000     0.00000
              7  H  1  X      0.01406     0.02297
              8  H  1  Y      0.00000     0.00000
              9  H  1  Z      0.00000     0.00000
             10  H  1 XX      0.00011     0.09564
             11  H  1 YY      0.00034     0.06841
             12  H  1 ZZ      0.00000     0.06841
             13  H  1 XY      0.00000     0.00000
             14  H  1 XZ      0.00000     0.00000
             15  H  1 YZ      0.00000     0.00000
             16  H  2  S      0.19741     0.15624
             17  H  2  S      0.50108     0.29546
             18  H  2  S      0.28426     0.29025
             19  H  2  X      0.00274     0.00261
             20  H  2  Y      0.00000     0.00000
             21  H  2  Z      0.00000     0.00000
             22  H  2  X      0.01406     0.02297
             23  H  2  Y      0.00000     0.00000
             24  H  2  Z      0.00000     0.00000
             25  H  2 XX      0.00011     0.09564
             26  H  2 YY      0.00034     0.06841
             27  H  2 ZZ      0.00000     0.06841
             28  H  2 XY      0.00000     0.00000
             29  H  2 XZ      0.00000     0.00000
             30  H  2 YZ      0.00000     0.00000

          ----- MULLIKEN ATOMIC OVERLAP POPULATIONS -----
          (OFF-DIAGONAL ELEMENTS NEED TO BE MULTIPLIED BY 2)

             1           2

    1    0.6078906
    2    0.3921094   0.6078906

          TOTAL MULLIKEN AND LOWDIN ATOMIC POPULATIONS
       ATOM         MULL.POP.    CHARGE          LOW.POP.     CHARGE
    1 H             1.000000   -0.000000         1.000000   -0.000000
    2 H             1.000000    0.000000         1.000000   -0.000000

          MULLIKEN SPHERICAL HARMONIC POPULATIONS
       ATOM           S       P       D      F      G      H      I    TOTAL
    1 H             0.98    0.02    0.00   0.00   0.00   0.00   0.00    1.00
    2 H             0.98    0.02    0.00   0.00   0.00   0.00   0.00    1.00

          ---------------------
          ELECTROSTATIC MOMENTS
          ---------------------

 POINT   1           X           Y           Z (BOHR)    CHARGE
                 0.900000    0.000000    0.000000        0.00 (A.U.)
         DX          DY          DZ         /D/  (DEBYE)
     0.000000    0.000000    0.000000    0.000000
 ...... END OF PROPERTY EVALUATION ......
 CPU     0: STEP CPU TIME=     0.01 TOTAL CPU TIME=        0.1 (    0.0 MIN)
 TOTAL WALL CLOCK TIME=        0.6 SECONDS, CPU UTILIZATION IS  10.53%

 MXVEC CANNOT BE BIGGER THAN THE NUMBER OF CIS CONFIGS
 SETTING MXVEC = NCFG


          ---------------------------------------------
             ATOMIC ORBITAL BASIS CI-SINGLES ENERGY
             PROGRAM WRITTEN BY SIMON P. WEBB
          ---------------------------------------------

 # CORE ORBITALS      =    0
 # OCCUPIED ORBITALS  =    1
 # MOLECULAR ORBITALS =   28
 # BASIS FUNCTIONS    =   30

 NUMBER OF CIS SPIN-ADAPTED ANTISYMMETRIZED PRODUCTS (SAPS) IS      27

 APPROXIMATING CIS HAMILTONIAN DIAGONAL ELEMENTS USING ONLY ORBITAL ENERGIES

 -CIS- HAM. DIAGONAL ELEMENTS  TOOK      0.000 SECONDS

 MIN MEMORY REQ. FOR CIS ENERGY FOCK-LIKE BUILDS =      1800 WORDS
 MEMORY REQ. FOR SINGLE BATCH BUILDS             =     48600 WORDS
 MEMORY AVAILABLE                                =    958955 WORDS

 SINGLE BATCH ENERGY CALCULATION WILL BE PERFORMED

 UNIT VECTOR GUESS AT CIS COEFFICIENTS ...

 USING IN MEMORY DIAGONALIZTION TO FIND CIS EIGENVALUES AND EIGENVECTORS ...

 STATE    1 ENERGY=       -0.6774968675
 STATE    2 ENERGY=       -0.4951199748
 STATE    3 ENERGY=       -0.2835767918
 STATE    4 ENERGY=       -0.2335108081
 STATE    5 ENERGY=       -0.2335108081


        --------------------------------------------------------
        RESULTS FROM SPIN-ADAPTED ANTISYMMETRIZED PRODUCT (SAPS)
        BASED ATOMIC ORBITAL CI-SINGLES ENERGY CALCULATION
        --------------------------------------------------------

 PRINTING CIS COEFFICIENTS LARGER THAN  0.050000

 RHF REFERENCE ENERGY  =        -1.1104098654


 EXCITED STATE   1  ENERGY=        -0.6774968675  S = 0.0  SPACE SYM = A   

          ----------------------------------------------
          SINGLE EXCITATION               SAP COEFFICENT
          FROM MO     TO MO
          ----------------------------------------------
             1          2                   0.99988033
          ----------------------------------------------


 EXCITED STATE   2  ENERGY=        -0.4951199748  S = 0.0  SPACE SYM = A   

          ----------------------------------------------
          SINGLE EXCITATION               SAP COEFFICENT
          FROM MO     TO MO
          ----------------------------------------------
             1          3                   0.99995897
          ----------------------------------------------


 EXCITED STATE   3  ENERGY=        -0.2835767918  S = 0.0  SPACE SYM = A   

          ----------------------------------------------
          SINGLE EXCITATION               SAP COEFFICENT
          FROM MO     TO MO
          ----------------------------------------------
             1          4                   0.99981510
          ----------------------------------------------


 EXCITED STATE   4  ENERGY=        -0.2335108081  S = 0.0  SPACE SYM = A   

          ----------------------------------------------
          SINGLE EXCITATION               SAP COEFFICENT
          FROM MO     TO MO
          ----------------------------------------------
             1          5                   0.18164231
             1          6                   0.98335151
          ----------------------------------------------


 EXCITED STATE   5  ENERGY=        -0.2335108081  S = 0.0  SPACE SYM = A   

          ----------------------------------------------
          SINGLE EXCITATION               SAP COEFFICENT
          FROM MO     TO MO
          ----------------------------------------------
             1          5                  -0.98335151
             1          6                   0.18164231
          ----------------------------------------------

  ---------------------------------------------------------------------
                    CI-SINGLES EXCITATION ENERGIES
  STATE       HARTREE        EV      KCAL/MOL       CM-1         NM
  ---------------------------------------------------------------------
   1A     0.4329129979    11.7802    271.6570      95013.42     105.25
   1A     0.6152898906    16.7429    386.1003     135040.52      74.05
   1A     0.8268330736    22.4993    518.8457     181468.88      55.11
   1A     0.8768990573    23.8616    550.2625     192457.10      51.96
   1A     0.8768990573    23.8616    550.2625     192457.10      51.96

 -CIS- ENERGY                  TOOK      0.010 SECONDS

  ---------------------------------------------------------------------
                    CIS TRANSITION DIPOLE MOMENTS AND
                    EXPECTATION VALUES OF DIPOLE MOMENTS
  ---------------------------------------------------------------------

 GROUND STATE (SCF) DIPOLE=     0.000000     0.000000     0.000000 DEBYE

 TRANSITION FROM THE GROUND STATE TO EXCITED STATE  1

 STATE MULTIPLICITIES =   1  1
 STATE ENERGIES =         -1.1104098654       -0.6774968675
 EXCITATION ENERGY =  2.8484E+15 [1/SEC] =    95013.42 [1/CM] =     11.78 [EV]
                            X           Y           Z           NORM
 TRANSITION DIPOLE =   -1.552875    0.000000   -0.000000    1.552875 E*BOHR
 TRANSITION DIPOLE =   -3.947046    0.000000   -0.000000    3.947046 DEBYE
 OSCILLATOR STRENGTH =    0.695957
 EINSTEIN COEFFICIENTS: A=  4.1908E+09 1/SEC; B=  9.7866E+08 SEC/G

 TRANSITION FROM THE GROUND STATE TO EXCITED STATE  2

 STATE MULTIPLICITIES =   1  1
 STATE ENERGIES =         -1.1104098654       -0.4951199748
 EXCITATION ENERGY =  4.0484E+15 [1/SEC] =   135040.52 [1/CM] =     16.74 [EV]
                            X           Y           Z           NORM
 TRANSITION DIPOLE =   -0.000000   -0.000000    0.000000    0.000000 E*BOHR
 TRANSITION DIPOLE =   -0.000000   -0.000000    0.000000    0.000000 DEBYE
 OSCILLATOR STRENGTH =    0.000000
 EINSTEIN COEFFICIENTS: A=  2.2511E-20 1/SEC; B=  1.8310E-21 SEC/G

 TRANSITION FROM THE GROUND STATE TO EXCITED STATE  3

 STATE MULTIPLICITIES =   1  1
 STATE ENERGIES =         -1.1104098654       -0.2835767918
 EXCITATION ENERGY =  5.4403E+15 [1/SEC] =   181468.88 [1/CM] =     22.50 [EV]
                            X           Y           Z           NORM
 TRANSITION DIPOLE =    0.542275   -0.000000   -0.000000    0.542275 E*BOHR
 TRANSITION DIPOLE =    1.378336   -0.000000   -0.000000    1.378336 DEBYE
 OSCILLATOR STRENGTH =    0.162094
 EINSTEIN COEFFICIENTS: A=  3.5606E+09 1/SEC; B=  1.1934E+08 SEC/G

 TRANSITION FROM THE GROUND STATE TO EXCITED STATE  4

 STATE MULTIPLICITIES =   1  1
 STATE ENERGIES =         -1.1104098654       -0.2335108081
 EXCITATION ENERGY =  5.7697E+15 [1/SEC] =   192457.10 [1/CM] =     23.86 [EV]
                            X           Y           Z           NORM
 TRANSITION DIPOLE =    0.000000    1.175042   -0.289561    1.210194 E*BOHR
 TRANSITION DIPOLE =    0.000000    2.986683   -0.735997    3.076031 DEBYE
 OSCILLATOR STRENGTH =    0.856187
 EINSTEIN COEFFICIENTS: A=  2.1154E+10 1/SEC; B=  5.9438E+08 SEC/G

 TRANSITION FROM THE GROUND STATE TO EXCITED STATE  5

 STATE MULTIPLICITIES =   1  1
 STATE ENERGIES =         -1.1104098654       -0.2335108081
 EXCITATION ENERGY =  5.7697E+15 [1/SEC] =   192457.10 [1/CM] =     23.86 [EV]
                            X           Y           Z           NORM
 TRANSITION DIPOLE =   -0.000000   -0.289561   -1.175042    1.210194 E*BOHR
 TRANSITION DIPOLE =   -0.000000   -0.735997   -2.986683    3.076031 DEBYE
 OSCILLATOR STRENGTH =    0.856187
 EINSTEIN COEFFICIENTS: A=  2.1154E+10 1/SEC; B=  5.9438E+08 SEC/G

 EXPECTATION VALUE DIPOLE MOMENT FOR EXCITED STATE  1

 STATE MULTIPLICITY =   1
 STATE ENERGY =         -0.6774968675
                            X           Y           Z           NORM
      STATE DIPOLE =   -0.000000    0.000000    0.000000    0.000000 E*BOHR
      STATE DIPOLE =   -0.000000    0.000000    0.000000    0.000000 DEBYE

 TRANSITION BETWEEN EXCITED STATES   1 AND  2

 STATE MULTIPLICITIES=  1  1
 STATE ENERGIES =         -0.6774968675       -0.4951199748
 TRANSITION ENERGY =  1.2000E+15 [1/SEC] =    40027.10 [1/CM] =        4.96 [EV]
                            X           Y           Z           NORM
 TRANSITION DIPOLE =   -1.454386   -0.000000    0.000000    1.454386 E*BOHR
 TRANSITION DIPOLE =   -3.696708   -0.000000    0.000000    3.696708 DEBYE
 OSCILLATOR STRENGTH =    0.257180
 EINSTEIN COEFFICIENTS: A=  2.7485E+08 1/SEC; B=  8.5845E+08 SEC/G

 TRANSITION BETWEEN EXCITED STATES   1 AND  3

 STATE MULTIPLICITIES=  1  1
 STATE ENERGIES =         -0.6774968675       -0.2835767918
 TRANSITION ENERGY =  2.5919E+15 [1/SEC] =    86455.46 [1/CM] =       10.72 [EV]
                            X           Y           Z           NORM
 TRANSITION DIPOLE =   -0.000000    0.000000   -0.000000    0.000000 E*BOHR
 TRANSITION DIPOLE =   -0.000000    0.000000   -0.000000    0.000000 DEBYE
 OSCILLATOR STRENGTH =    0.000000
 EINSTEIN COEFFICIENTS: A=  1.2629E-20 1/SEC; B=  3.9146E-21 SEC/G

 TRANSITION BETWEEN EXCITED STATES   1 AND  4

 STATE MULTIPLICITIES=  1  1
 STATE ENERGIES =         -0.6774968675       -0.2335108081
 TRANSITION ENERGY =  2.9213E+15 [1/SEC] =    97443.68 [1/CM] =       12.08 [EV]
                            X           Y           Z           NORM
 TRANSITION DIPOLE =   -0.000000   -0.000000    0.000000    0.000000 E*BOHR
 TRANSITION DIPOLE =   -0.000000   -0.000000    0.000000    0.000000 DEBYE
 OSCILLATOR STRENGTH =    0.000000
 EINSTEIN COEFFICIENTS: A=  1.1223E-20 1/SEC; B=  2.4295E-21 SEC/G

 TRANSITION BETWEEN EXCITED STATES   1 AND  5

 STATE MULTIPLICITIES=  1  1
 STATE ENERGIES =         -0.6774968675       -0.2335108081
 TRANSITION ENERGY =  2.9213E+15 [1/SEC] =    97443.68 [1/CM] =       12.08 [EV]
                            X           Y           Z           NORM
 TRANSITION DIPOLE =    0.000000    0.000000    0.000000    0.000000 E*BOHR
 TRANSITION DIPOLE =    0.000000    0.000000    0.000000    0.000000 DEBYE
 OSCILLATOR STRENGTH =    0.000000
 EINSTEIN COEFFICIENTS: A=  2.2320E-21 1/SEC; B=  4.8319E-22 SEC/G

 EXPECTATION VALUE DIPOLE MOMENT FOR EXCITED STATE  2

 STATE MULTIPLICITY =   1
 STATE ENERGY =         -0.4951199748
                            X           Y           Z           NORM
      STATE DIPOLE =   -0.000000   -0.000000   -0.000000    0.000000 E*BOHR
      STATE DIPOLE =   -0.000000   -0.000000   -0.000000    0.000000 DEBYE

 TRANSITION BETWEEN EXCITED STATES   2 AND  3

 STATE MULTIPLICITIES=  1  1
 STATE ENERGIES =         -0.4951199748       -0.2835767918
 TRANSITION ENERGY =  1.3919E+15 [1/SEC] =    46428.36 [1/CM] =        5.76 [EV]
                            X           Y           Z           NORM
 TRANSITION DIPOLE =   -1.374792   -0.000000   -0.000000    1.374792 E*BOHR
 TRANSITION DIPOLE =   -3.494399   -0.000000   -0.000000    3.494399 DEBYE
 OSCILLATOR STRENGTH =    0.266552
 EINSTEIN COEFFICIENTS: A=  3.8326E+08 1/SEC; B=  7.6706E+08 SEC/G

 TRANSITION BETWEEN EXCITED STATES   2 AND  4

 STATE MULTIPLICITIES=  1  1
 STATE ENERGIES =         -0.4951199748       -0.2335108081
 TRANSITION ENERGY =  1.7213E+15 [1/SEC] =    57416.58 [1/CM] =        7.12 [EV]
                            X           Y           Z           NORM
 TRANSITION DIPOLE =   -0.000000    0.422676   -0.104158    0.435321 E*BOHR
 TRANSITION DIPOLE =   -0.000000    1.074343   -0.264746    1.106483 DEBYE
 OSCILLATOR STRENGTH =    0.033051
 EINSTEIN COEFFICIENTS: A=  7.2678E+07 1/SEC; B=  7.6909E+07 SEC/G

 TRANSITION BETWEEN EXCITED STATES   2 AND  5

 STATE MULTIPLICITIES=  1  1
 STATE ENERGIES =         -0.4951199748       -0.2335108081
 TRANSITION ENERGY =  1.7213E+15 [1/SEC] =    57416.58 [1/CM] =        7.12 [EV]
                            X           Y           Z           NORM
 TRANSITION DIPOLE =    0.000000   -0.104158   -0.422676    0.435321 E*BOHR
 TRANSITION DIPOLE =    0.000000   -0.264746   -1.074343    1.106483 DEBYE
 OSCILLATOR STRENGTH =    0.033051
 EINSTEIN COEFFICIENTS: A=  7.2678E+07 1/SEC; B=  7.6909E+07 SEC/G

 EXPECTATION VALUE DIPOLE MOMENT FOR EXCITED STATE  3

 STATE MULTIPLICITY =   1
 STATE ENERGY =         -0.2835767918
                            X           Y           Z           NORM
      STATE DIPOLE =    0.000000    0.000000   -0.000000    0.000000 E*BOHR
      STATE DIPOLE =    0.000000    0.000000   -0.000000    0.000000 DEBYE

 TRANSITION BETWEEN EXCITED STATES   3 AND  4

 STATE MULTIPLICITIES=  1  1
 STATE ENERGIES =         -0.2835767918       -0.2335108081
 TRANSITION ENERGY =  3.2942E+14 [1/SEC] =    10988.21 [1/CM] =        1.36 [EV]
                            X           Y           Z           NORM
 TRANSITION DIPOLE =   -0.000000    0.000000   -0.000000    0.000000 E*BOHR
 TRANSITION DIPOLE =   -0.000000    0.000000   -0.000000    0.000000 DEBYE
 OSCILLATOR STRENGTH =    0.000000
 EINSTEIN COEFFICIENTS: A=  4.8317E-25 1/SEC; B=  7.2946E-23 SEC/G

 TRANSITION BETWEEN EXCITED STATES   3 AND  5

 STATE MULTIPLICITIES=  1  1
 STATE ENERGIES =         -0.2835767918       -0.2335108081
 TRANSITION ENERGY =  3.2942E+14 [1/SEC] =    10988.21 [1/CM] =        1.36 [EV]
                            X           Y           Z           NORM
 TRANSITION DIPOLE =    0.000000   -0.000000    0.000000    0.000000 E*BOHR
 TRANSITION DIPOLE =    0.000000   -0.000000    0.000000    0.000000 DEBYE
 OSCILLATOR STRENGTH =    0.000000
 EINSTEIN COEFFICIENTS: A=  1.9583E-25 1/SEC; B=  2.9566E-23 SEC/G

 EXPECTATION VALUE DIPOLE MOMENT FOR EXCITED STATE  4

 STATE MULTIPLICITY =   1
 STATE ENERGY =         -0.2335108081
                            X           Y           Z           NORM
      STATE DIPOLE =   -0.000000   -0.000000    0.000000    0.000000 E*BOHR
      STATE DIPOLE =   -0.000000   -0.000000    0.000000    0.000000 DEBYE

 TRANSITION BETWEEN EXCITED STATES   4 AND  5

 STATE MULTIPLICITIES=  1  1
 STATE ENERGIES =         -0.2335108081       -0.2335108081
 TRANSITION ENERGY =  5.5517E+01 [1/SEC] =        0.00 [1/CM] =        0.00 [EV]
                            X           Y           Z           NORM
 TRANSITION DIPOLE =   -0.000000    0.000000    0.000000    0.000000 E*BOHR
 TRANSITION DIPOLE =   -0.000000    0.000000    0.000000    0.000000 DEBYE
 OSCILLATOR STRENGTH =    0.000000
 EINSTEIN COEFFICIENTS: A=  1.4282E-62 1/SEC; B=  4.5044E-22 SEC/G

 EXPECTATION VALUE DIPOLE MOMENT FOR EXCITED STATE  5

 STATE MULTIPLICITY =   1
 STATE ENERGY =         -0.2335108081
                            X           Y           Z           NORM
      STATE DIPOLE =    0.000000    0.000000    0.000000    0.000000 E*BOHR
      STATE DIPOLE =    0.000000    0.000000    0.000000    0.000000 DEBYE

 CIS NATURAL ORBITAL OCCUPATION NUMBERS FOR EXCITED STATE    1 ARE
  1.0000 1.0000 0.0000 0.0000 0.0000 0.0000 0.0000 0.0000 0.0000 0.0000
  0.0000 0.0000 0.0000 0.0000 0.0000 0.0000 0.0000 0.0000 0.0000 0.0000
  0.0000 0.0000 0.0000 0.0000 0.0000-0.0000-0.0000-0.0000
 THERE ARE     1.0000 ELECTRONS IN PRINCIPAL CIS NATURAL ORBITALS.
 THERE ARE     1.0000 ELECTRONS IN SECONDARY CIS NATURAL ORBITALS.

          --------------------
          CIS NATURAL ORBITALS
          --------------------

                      1          2          3          4          5

                    1.0000     1.0000     0.0000     0.0000     0.0000

    1  H  1  S   -0.085300  -0.164851  -0.346542  -0.207918  -0.321683
    2  H  1  S   -0.052715  -0.285929  -0.471226   0.077922   3.424937
    3  H  1  S   -1.657908  -0.171198   0.732167  -0.848159  -0.728163
    4  H  1  X    0.012774  -0.009226   0.071849   0.009880   0.499471
    5  H  1  Y    0.000000   0.000000  -0.017555   0.154607   0.349147
    6  H  1  Z   -0.000000  -0.000000   0.011377  -0.177482   0.091312
    7  H  1  X    0.004124  -0.021718   0.003396  -0.376764   1.527388
    8  H  1  Y    0.000000   0.000000  -0.022067   0.194346   0.216834
    9  H  1  Z   -0.000000  -0.000000   0.014301  -0.223099   0.074227
   10  H  1 XX    0.002972  -0.002061   0.007135  -0.025816   0.596202
   11  H  1 YY   -0.001486   0.001031  -0.003568   0.012908  -0.298101
   12  H  1 ZZ   -0.001486   0.001031  -0.003568   0.012908  -0.298101
   13  H  1 XY    0.000000   0.000000  -0.012421   0.109397  -0.246750
   14  H  1 XZ   -0.000000  -0.000000   0.008050  -0.125583  -0.025575
   15  H  1 YZ    0.000000   0.000000   0.000000   0.000000   0.000000
   16  H  2  S    0.085300  -0.164851  -0.346542   0.183967   0.324890
   17  H  2  S    0.052715  -0.285929  -0.471226  -0.313247  -3.393428
   18  H  2  S    1.657908  -0.171198   0.732167   1.047743   0.701439
   19  H  2  X    0.012774   0.009226  -0.071849   0.179636   0.476742
   20  H  2  Y    0.000000   0.000000  -0.017555   0.154607  -0.390550
   21  H  2  Z   -0.000000  -0.000000   0.011377  -0.177482  -0.043784
   22  H  2  X    0.004124   0.021718  -0.003396  -0.599890   1.557264
   23  H  2  Y    0.000000   0.000000  -0.022067   0.194346  -0.268878
   24  H  2  Z   -0.000000  -0.000000   0.014301  -0.223099  -0.014482
   25  H  2 XX   -0.002972  -0.002061   0.007135   0.097448  -0.605793
   26  H  2 YY    0.001486   0.001031  -0.003568  -0.048724   0.302897
   27  H  2 ZZ    0.001486   0.001031  -0.003568  -0.048724   0.302897
   28  H  2 XY   -0.000000  -0.000000   0.012421  -0.109397  -0.217454
   29  H  2 XZ    0.000000   0.000000  -0.008050   0.125583  -0.059205
   30  H  2 YZ    0.000000   0.000000   0.000000   0.000000   0.000000

                      6          7          8          9         10

                    0.0000     0.0000     0.0000     0.0000     0.0000

    1  H  1  S    0.000000   0.000000   0.000000  -0.159440   0.000000
    2  H  1  S    0.000000   0.000000   0.000000   0.038957   0.000000
    3  H  1  S    0.000000   0.000000   0.000000  -0.317050   0.000000
    4  H  1  X    0.000000   0.000000   0.000000  -0.310847   0.000000
    5  H  1  Y    0.081433  -0.020402   0.125984  -0.048921   0.000000
    6  H  1  Z   -0.445872   0.125984   0.020402  -0.001224   0.000000
    7  H  1  X    0.000000   0.000000   0.000000  -0.194799   0.000000
    8  H  1  Y    0.053472  -0.035555   0.219556  -0.035603   0.000000
    9  H  1  Z   -0.292776   0.219556   0.035555   0.003191   0.000000
   10  H  1 XX    0.000000   0.000000   0.000000   0.509702   0.000000
   11  H  1 YY    0.000000   0.000000   0.000000  -0.254851   0.000000
   12  H  1 ZZ    0.000000   0.000000   0.000000  -0.254851   0.000000
   13  H  1 XY   -0.051104   0.091996  -0.568093   0.022963   0.000000
   14  H  1 XZ    0.279811  -0.568093  -0.091996   0.009650   0.000000
   15  H  1 YZ    0.000000   0.000000   0.000000   0.000000  -0.650822
   16  H  2  S    0.000000   0.000000   0.000000   0.160338   0.000000
   17  H  2  S    0.000000   0.000000   0.000000  -0.030136   0.000000
   18  H  2  S    0.000000   0.000000   0.000000   0.309568   0.000000
   19  H  2  X    0.000000   0.000000   0.000000  -0.317210   0.000000
   20  H  2  Y   -0.081433  -0.020402   0.125984   0.037330   0.000000
   21  H  2  Z    0.445872   0.125984   0.020402   0.014529   0.000000
   22  H  2  X    0.000000   0.000000   0.000000  -0.186436   0.000000
   23  H  2  Y   -0.053472  -0.035555   0.219556   0.021033   0.000000
   24  H  2  Z    0.292776   0.219556   0.035555   0.013535   0.000000
   25  H  2 XX    0.000000   0.000000   0.000000  -0.512387   0.000000
   26  H  2 YY    0.000000   0.000000   0.000000   0.256193   0.000000
   27  H  2 ZZ    0.000000   0.000000   0.000000   0.256193   0.000000
   28  H  2 XY   -0.051104  -0.091996   0.568093   0.031165   0.000000
   29  H  2 XZ    0.279811   0.568093   0.091996   0.000236   0.000000
   30  H  2 YZ    0.000000   0.000000   0.000000   0.000000  -0.650822

                     11         12         13         14         15

                    0.0000     0.0000     0.0000     0.0000     0.0000

    1  H  1  S    0.000000   0.070660   0.000000   0.000000  -0.194475
    2  H  1  S    0.000000  -0.191282   0.000000   0.000000   0.396159
    3  H  1  S    0.000000   0.150458   0.000000   0.000000  -0.201823
    4  H  1  X    0.000000  -0.008434   0.000000   0.000000   0.217193
    5  H  1  Y    0.000000   0.064414   0.000000   0.000000  -0.166702
    6  H  1  Z    0.000000   0.053951   0.000000   0.000000  -0.159914
    7  H  1  X    0.000000  -0.195497   0.000000   0.000000  -0.339911
    8  H  1  Y    0.000000   0.080971   0.000000   0.000000  -0.209549
    9  H  1  Z    0.000000   0.067818   0.000000   0.000000  -0.201016
   10  H  1 XX    0.000000   0.594967   0.000000   0.000000   0.134330
   11  H  1 YY   -0.563629  -0.297483   0.000000  -0.676435  -0.067165
   12  H  1 ZZ    0.563629  -0.297483   0.000000   0.676435  -0.067165
   13  H  1 XY    0.000000   0.045578   0.000000   0.000000  -0.117955
   14  H  1 XZ    0.000000   0.038175   0.000000   0.000000  -0.113152
   15  H  1 YZ    0.000000   0.000000  -0.781080   0.000000   0.000000
   16  H  2  S    0.000000   0.070660   0.000000   0.000000  -0.194475
   17  H  2  S    0.000000  -0.191282   0.000000   0.000000   0.396159
   18  H  2  S    0.000000   0.150458   0.000000   0.000000  -0.201823
   19  H  2  X    0.000000   0.008434   0.000000   0.000000  -0.217193
   20  H  2  Y    0.000000   0.064414   0.000000   0.000000  -0.166702
   21  H  2  Z    0.000000   0.053951   0.000000   0.000000  -0.159914
   22  H  2  X    0.000000   0.195497   0.000000   0.000000   0.339911
   23  H  2  Y    0.000000   0.080971   0.000000   0.000000  -0.209549
   24  H  2  Z    0.000000   0.067818   0.000000   0.000000  -0.201016
   25  H  2 XX    0.000000   0.594967   0.000000   0.000000   0.134330
   26  H  2 YY   -0.563629  -0.297483   0.000000   0.676435  -0.067165
   27  H  2 ZZ    0.563629  -0.297483   0.000000  -0.676435  -0.067165
   28  H  2 XY    0.000000  -0.045578   0.000000   0.000000   0.117955
   29  H  2 XZ    0.000000  -0.038175   0.000000   0.000000   0.113152
   30  H  2 YZ    0.000000   0.000000   0.781080   0.000000   0.000000

                     16         17         18         19         20

                    0.0000     0.0000     0.0000     0.0000     0.0000

    1  H  1  S    0.000000   0.000000   0.000000   0.000000   0.767466
    2  H  1  S    0.000000   0.000000   0.000000   0.000000  -0.497353
    3  H  1  S    0.000000   0.000000   0.000000   0.000000   1.387735
    4  H  1  X    0.000000   0.000000   0.000000   0.000000  -0.400303
    5  H  1  Y    0.743059   0.403819  -0.228258  -0.639872   0.224421
    6  H  1  Z    0.403819  -0.743059   0.639872  -0.228258  -0.028094
    7  H  1  X    0.000000   0.000000   0.000000   0.000000   0.927056
    8  H  1  Y   -0.561687  -0.305252   0.075574   0.211855   0.178534
    9  H  1  Z   -0.305252   0.561687  -0.211855   0.075574  -0.054231
   10  H  1 XX    0.000000   0.000000   0.000000   0.000000   0.200553
   11  H  1 YY    0.000000   0.000000   0.000000   0.000000  -0.100277
   12  H  1 ZZ    0.000000   0.000000   0.000000   0.000000  -0.100277
   13  H  1 XY   -0.052295  -0.028420  -0.284648  -0.797949  -0.071519
   14  H  1 XZ   -0.028420   0.052295   0.797949  -0.284648  -0.061943
   15  H  1 YZ    0.000000   0.000000   0.000000   0.000000   0.000000
   16  H  2  S    0.000000   0.000000   0.000000   0.000000  -0.775509
   17  H  2  S    0.000000   0.000000   0.000000   0.000000   0.418330
   18  H  2  S    0.000000   0.000000   0.000000   0.000000  -1.320714
   19  H  2  X    0.000000   0.000000   0.000000   0.000000  -0.343298
   20  H  2  Y    0.743059   0.403819   0.228258   0.639872  -0.120585
   21  H  2  Z    0.403819  -0.743059  -0.639872   0.228258  -0.091105
   22  H  2  X    0.000000   0.000000   0.000000   0.000000   0.852128
   23  H  2  Y   -0.561687  -0.305252  -0.075574  -0.211855  -0.048009
   24  H  2  Z   -0.305252   0.561687   0.211855  -0.075574  -0.095606
   25  H  2 XX    0.000000   0.000000   0.000000   0.000000  -0.176498
   26  H  2 YY    0.000000   0.000000   0.000000   0.000000   0.088249
   27  H  2 ZZ    0.000000   0.000000   0.000000   0.000000   0.088249
   28  H  2 XY    0.052295   0.028420  -0.284648  -0.797949  -0.144992
   29  H  2 XZ    0.028420  -0.052295   0.797949  -0.284648   0.022400
   30  H  2 YZ    0.000000   0.000000   0.000000   0.000000   0.000000

                     21         22         23         24         25

                    0.0000     0.0000     0.0000     0.0000     0.0000

    1  H  1  S   -0.632214   0.596800   0.000000   0.000000   1.003668
    2  H  1  S   -0.000146  -0.067157   0.000000   0.000000  -1.367164
    3  H  1  S    0.308958  -0.046566   0.000000   0.000000   0.671888
    4  H  1  X   -1.129355   0.852705   0.000000   0.000000  -0.173873
    5  H  1  Y    0.072127   0.048990  -0.449611  -0.059999  -0.069792
    6  H  1  Z    0.012839   0.010783   0.059999  -0.449611  -0.039833
    7  H  1  X    0.305945  -1.000372   0.000000   0.000000   0.227808
    8  H  1  Y    0.047512   0.061581   1.379275   0.184060  -0.087731
    9  H  1  Z    0.008258   0.013554  -0.184060   1.379275  -0.050071
   10  H  1 XX   -0.791165  -0.573520   0.000000   0.000000  -0.079983
   11  H  1 YY    0.395583   0.286760   0.000000   0.000000   0.039992
   12  H  1 ZZ    0.395583   0.286760   0.000000   0.000000   0.039992
   13  H  1 XY   -0.044929   0.034664   0.726737   0.096981  -0.049384
   14  H  1 XZ   -0.008442   0.007630  -0.096981   0.726737  -0.028185
   15  H  1 YZ    0.000000   0.000000   0.000000   0.000000   0.000000
   16  H  2  S    0.632175   0.596800   0.000000   0.000000   1.003668
   17  H  2  S   -0.000236  -0.067157   0.000000   0.000000  -1.367164
   18  H  2  S   -0.308634  -0.046566   0.000000   0.000000   0.671888
   19  H  2  X   -1.129079  -0.852705   0.000000   0.000000   0.173873
   20  H  2  Y   -0.071625   0.048990   0.449611   0.059999  -0.069792
   21  H  2  Z   -0.013415   0.010783  -0.059999   0.449611  -0.039833
   22  H  2  X    0.305583   1.000372   0.000000   0.000000  -0.227808
   23  H  2  Y   -0.046881   0.061581  -1.379275  -0.184060  -0.087731
   24  H  2  Z   -0.008982   0.013554   0.184060  -1.379275  -0.050071
   25  H  2 XX    0.791281  -0.573520   0.000000   0.000000  -0.079983
   26  H  2 YY   -0.395641   0.286760   0.000000   0.000000   0.039992
   27  H  2 ZZ   -0.395641   0.286760   0.000000   0.000000   0.039992
   28  H  2 XY   -0.045284  -0.034664   0.726737   0.096981   0.049384
   29  H  2 XZ   -0.008034  -0.007630  -0.096981   0.726737   0.028185
   30  H  2 YZ    0.000000   0.000000   0.000000   0.000000   0.000000

                     26         27         28

                   -0.0000    -0.0000    -0.0000

    1  H  1  S    0.158327   0.064155  -0.372627
    2  H  1  S   -7.423858   0.322414  -0.245261
    3  H  1  S   -0.037508  -0.146372   1.424370
    4  H  1  X   -0.301603  -0.318249   0.216978
    5  H  1  Y    0.148973   0.000000   0.042415
    6  H  1  Z    0.040340   0.000000  -0.048690
    7  H  1  X   -4.754483  -0.413847   0.342007
    8  H  1  Y    0.091896   0.000000   0.053317
    9  H  1  Z    0.033290   0.000000  -0.061205
   10  H  1 XX   -1.109611  -0.167261   0.113899
   11  H  1 YY    0.554806   0.083631  -0.056949
   12  H  1 ZZ    0.554806   0.083631  -0.056949
   13  H  1 XY   -0.106666   0.000000   0.030012
   14  H  1 XZ   -0.010189   0.000000  -0.034452
   15  H  1 YZ    0.000000   0.000000   0.000000
   16  H  2  S   -0.156798   0.064155   0.366057
   17  H  2  S    7.438880   0.322414   0.180702
   18  H  2  S    0.024769  -0.146372  -1.369616
   19  H  2  X   -0.312439   0.318249   0.263548
   20  H  2  Y   -0.168711   0.000000   0.042415
   21  H  2  Z   -0.017681   0.000000  -0.048690
   22  H  2  X   -4.740240   0.413847   0.280794
   23  H  2  Y   -0.116707   0.000000   0.053317
   24  H  2  Z   -0.004808   0.000000  -0.061205
   25  H  2 XX    1.105039  -0.167261  -0.094247
   26  H  2 YY   -0.552519   0.083631   0.047124
   27  H  2 ZZ   -0.552519   0.083631   0.047124
   28  H  2 XY   -0.092700   0.000000  -0.030012
   29  H  2 XZ   -0.026222   0.000000   0.034452
   30  H  2 YZ    0.000000   0.000000   0.000000

 THE CIS NATURAL ORBITALS HAVE BEEN PUNCHED.

 ..... DONE WITH CIS ENERGY .....

 CPU     0: STEP CPU TIME=     0.01 TOTAL CPU TIME=        0.1 (    0.0 MIN)
 TOTAL WALL CLOCK TIME=        0.7 SECONDS, CPU UTILIZATION IS   9.59%

     -------------------------------------------------------------
     CIS   PROPERTIES...FOR THE WAVEFUNCTION OF EXCITED STATE    1
                 USING THE EXPECTATION VALUE DENSITY
     -------------------------------------------------------------

          -----------------
          ENERGY COMPONENTS
          -----------------

         WAVEFUNCTION NORMALIZATION =       1.0000000000

                ONE ELECTRON ENERGY =      -1.6568095519
                TWO ELECTRON ENERGY =       0.4237571289
           NUCLEAR REPULSION ENERGY =       0.5555555556
                                      ------------------
                       TOTAL ENERGY =      -0.6774968675

 ELECTRON-ELECTRON POTENTIAL ENERGY =       0.4237571289
  NUCLEUS-ELECTRON POTENTIAL ENERGY =      -2.4414866743
   NUCLEUS-NUCLEUS POTENTIAL ENERGY =       0.5555555556
                                      ------------------
             TOTAL POTENTIAL ENERGY =      -1.4621739899
               TOTAL KINETIC ENERGY =       0.7846771224
                 VIRIAL RATIO (V/T) =       1.8634084620

          ---------------------------------------
          MULLIKEN AND LOWDIN POPULATION ANALYSES
          ---------------------------------------

               ----- POPULATIONS IN EACH AO -----
                             MULLIKEN      LOWDIN
              1  H  1  S      0.12137     0.08971
              2  H  1  S      0.26920     0.21016
              3  H  1  S      0.59632     0.41832
              4  H  1  X      0.00349     0.00413
              5  H  1  Y      0.00000     0.00000
              6  H  1  Z      0.00000     0.00000
              7  H  1  X      0.00917     0.14045
              8  H  1  Y      0.00000     0.00000
              9  H  1  Z      0.00000     0.00000
             10  H  1 XX      0.00011     0.05096
             11  H  1 YY      0.00032     0.04313
             12  H  1 ZZ      0.00000     0.04313
             13  H  1 XY      0.00000     0.00000
             14  H  1 XZ      0.00000     0.00000
             15  H  1 YZ      0.00000     0.00000
             16  H  2  S      0.12137     0.08971
             17  H  2  S      0.26920     0.21016
             18  H  2  S      0.59632     0.41832
             19  H  2  X      0.00349     0.00413
             20  H  2  Y      0.00000     0.00000
             21  H  2  Z      0.00000     0.00000
             22  H  2  X      0.00917     0.14045
             23  H  2  Y      0.00000     0.00000
             24  H  2  Z      0.00000     0.00000
             25  H  2 XX      0.00011     0.05096
             26  H  2 YY      0.00032     0.04313
             27  H  2 ZZ      0.00000     0.04313
             28  H  2 XY      0.00000     0.00000
             29  H  2 XZ      0.00000     0.00000
             30  H  2 YZ      0.00000     0.00000

          ----- MULLIKEN ATOMIC OVERLAP POPULATIONS -----
          (OFF-DIAGONAL ELEMENTS NEED TO BE MULTIPLIED BY 2)

             1           2

    1    3.3128029
    2   -2.3128029   3.3128029

          TOTAL MULLIKEN AND LOWDIN ATOMIC POPULATIONS
       ATOM         MULL.POP.    CHARGE          LOW.POP.     CHARGE
    1 H             1.000000    0.000000         1.000000    0.000000
    2 H             1.000000   -0.000000         1.000000   -0.000000

          MULLIKEN SPHERICAL HARMONIC POPULATIONS
       ATOM           S       P       D      F      G      H      I    TOTAL
    1 H             0.99    0.01    0.00   0.00   0.00   0.00   0.00    1.00
    2 H             0.99    0.01    0.00   0.00   0.00   0.00   0.00    1.00

          ---------------------
          ELECTROSTATIC MOMENTS
          ---------------------

 POINT   1           X           Y           Z (BOHR)    CHARGE
                 0.900000    0.000000    0.000000       -0.00 (A.U.)
         DX          DY          DZ         /D/  (DEBYE)
    -0.000000    0.000000    0.000000    0.000000
 ...... END OF PROPERTY EVALUATION ......
 CPU     0: STEP CPU TIME=     0.01 TOTAL CPU TIME=        0.1 (    0.0 MIN)
 TOTAL WALL CLOCK TIME=        0.8 SECONDS, CPU UTILIZATION IS  10.13%
                580000  WORDS OF DYNAMIC MEMORY USED
 EXECUTION OF GAMESS TERMINATED NORMALLY Wed Apr 12 18:20:28 2017
 DDI: 263640 bytes (0.3 MB / 0 MWords) used by master data server.

 ----------------------------------------
 CPU timing information for all processes
 ========================================
 0: 0.36 + 0.55 = 0.92
 1: 0.23 + 0.24 = 0.48
 2: 0.20 + 0.31 = 0.52
 3: 0.24 + 0.22 = 0.46
 4: 0.16 + 0.40 = 0.56
 5: 0.19 + 0.27 = 0.46
 6: 0.18 + 0.33 = 0.51
 7: 0.18 + 0.21 = 0.40
 8: 0.20 + 0.36 = 0.57
 9: 0.22 + 0.20 = 0.42
 10: 0.23 + 0.28 = 0.52
 11: 0.17 + 0.21 = 0.39
 12: 0.21 + 0.31 = 0.53
 13: 0.23 + 0.19 = 0.42
 14: 0.16 + 0.31 = 0.47
 15: 0.16 + 0.18 = 0.35
 ----------------------------------------
 ddikick.x: exited gracefully.
----- accounting info -----
Files used on the master node kylin.physics.illinois.edu were:
-rw-rw-r--. 1 yyang173 yyang173     331 Apr 12 18:20 /scr/yyang173/sep1.80-cis.F05
-rw-rw-r--. 1 yyang173 yyang173  180016 Apr 12 18:20 /scr/yyang173/sep1.80-cis.F08
-rw-rw-r--. 1 yyang173 yyang173  180016 Apr 12 18:20 /scr/yyang173/sep1.80-cis.F08.001
-rw-rw-r--. 1 yyang173 yyang173  180016 Apr 12 18:20 /scr/yyang173/sep1.80-cis.F08.002
-rw-rw-r--. 1 yyang173 yyang173  180016 Apr 12 18:20 /scr/yyang173/sep1.80-cis.F08.003
-rw-rw-r--. 1 yyang173 yyang173  180016 Apr 12 18:20 /scr/yyang173/sep1.80-cis.F08.004
-rw-rw-r--. 1 yyang173 yyang173  180016 Apr 12 18:20 /scr/yyang173/sep1.80-cis.F08.005
-rw-rw-r--. 1 yyang173 yyang173  180016 Apr 12 18:20 /scr/yyang173/sep1.80-cis.F08.006
-rw-rw-r--. 1 yyang173 yyang173  180016 Apr 12 18:20 /scr/yyang173/sep1.80-cis.F08.007
-rw-rw-r--. 1 yyang173 yyang173  180016 Apr 12 18:20 /scr/yyang173/sep1.80-cis.F08.008
-rw-rw-r--. 1 yyang173 yyang173  180016 Apr 12 18:20 /scr/yyang173/sep1.80-cis.F08.009
-rw-rw-r--. 1 yyang173 yyang173  180016 Apr 12 18:20 /scr/yyang173/sep1.80-cis.F08.010
-rw-rw-r--. 1 yyang173 yyang173  180016 Apr 12 18:20 /scr/yyang173/sep1.80-cis.F08.011
-rw-rw-r--. 1 yyang173 yyang173  180016 Apr 12 18:20 /scr/yyang173/sep1.80-cis.F08.012
-rw-rw-r--. 1 yyang173 yyang173  180016 Apr 12 18:20 /scr/yyang173/sep1.80-cis.F08.013
-rw-rw-r--. 1 yyang173 yyang173  180016 Apr 12 18:20 /scr/yyang173/sep1.80-cis.F08.014
-rw-rw-r--. 1 yyang173 yyang173  180016 Apr 12 18:20 /scr/yyang173/sep1.80-cis.F08.015
-rw-rw-r--. 1 yyang173 yyang173 1636000 Apr 12 18:20 /scr/yyang173/sep1.80-cis.F10
-rw-rw-r--. 1 yyang173 yyang173    1120 Apr 12 18:20 /scr/yyang173/sep1.80-cis.F12
Wed Apr 12 18:20:31 CDT 2017
0.268u 0.105s 0:04.41 8.1%	0+0k 0+16io 0pf+0w
