----- GAMESS execution script 'rungms' -----
This job is running on host kylin.physics.illinois.edu
under operating system Linux at Wed Apr 12 18:20:44 CDT 2017
Available scratch disk space (Kbyte units) at beginning of the job is
Filesystem                    1K-blocks     Used Available Use% Mounted on
/dev/mapper/fedora_kylin-root 110123880 60480280  44601484  58% /
GAMESS temporary binary files will be written to /scr/yyang173
GAMESS supplementary output files will be written to /home/yyang173/Desktop/attempts/drag-node/hf_grid/cis/sep2.20
Copying input file sep2.20-cis.inp to your run's scratch directory...
 
Assuming a single but multicore node.
 

 Distributed Data Interface kickoff program.
 Initiating 16 compute processes on 1 nodes to run the following command:
 /opt/intel17/apps/gamess_2016R1/gamess.00.x sep2.20-cis 

          ******************************************************
          *         GAMESS VERSION = 18 AUG 2016 (R1)          *
          *             FROM IOWA STATE UNIVERSITY             *
          * M.W.SCHMIDT, K.K.BALDRIDGE, J.A.BOATZ, S.T.ELBERT, *
          *   M.S.GORDON, J.H.JENSEN, S.KOSEKI, N.MATSUNAGA,   *
          *          K.A.NGUYEN, S.J.SU, T.L.WINDUS,           *
          *       TOGETHER WITH M.DUPUIS, J.A.MONTGOMERY       *
          *         J.COMPUT.CHEM.  14, 1347-1363(1993)        *
          **************** 64 BIT INTEL VERSION ****************

  SINCE 1993, STUDENTS AND POSTDOCS WORKING AT IOWA STATE UNIVERSITY
  AND ALSO IN THEIR VARIOUS JOBS AFTER LEAVING ISU HAVE MADE IMPORTANT
  CONTRIBUTIONS TO THE CODE:
     IVANA ADAMOVIC, CHRISTINE AIKENS, YURI ALEXEEV, POOJA ARORA,
     ANDREY ASADCHEV, ROB BELL, PRADIPTA BANDYOPADHYAY, JONATHAN BENTZ,
     BRETT BODE, KURT BRORSEN, CALEB CARLIN, GALINA CHABAN, WEI CHEN,
     CHEOL HO CHOI, PAUL DAY, ALBERT DEFUSCO, NUWAN DESILVA, TIM DUDLEY,
     DMITRI FEDOROV, GRAHAM FLETCHER, MARK FREITAG, KURT GLAESEMANN,
     DAN KEMP, GRANT MERRILL, NORIYUKI MINEZAWA, JONATHAN MULLIN,
     TAKESHI NAGATA, SEAN NEDD, HEATHER NETZLOFF, BOSILJKA NJEGIC, RYAN OLSON,
     MIKE PAK, SPENCER PRUITT, LUKE ROSKOP, JIM SHOEMAKER, LYUDMILA SLIPCHENKO,
     TONY SMITH, SAROM SOK LEANG, JIE SONG, TETSUYA TAKETSUGU, SIMON WEBB,
     PENG XU, SOOHAENG YOO, FEDERICO ZAHARIEV

  ADDITIONAL CODE HAS BEEN PROVIDED BY COLLABORATORS IN OTHER GROUPS:
     IOWA STATE UNIVERSITY:
          JOE IVANIC, AARON WEST, LAIMUTIS BYTAUTAS, KLAUS RUEDENBERG
     UNIVERSITY OF TOKYO: KIMIHIKO HIRAO, TAKAHITO NAKAJIMA,
          TAKAO TSUNEDA, MUNEAKI KAMIYA, SUSUMU YANAGISAWA,
          KIYOSHI YAGI, MAHITO CHIBA, SEIKEN TOKURA, NAOAKI KAWAKAMI
     UNIVERSITY OF AARHUS: FRANK JENSEN
     UNIVERSITY OF IOWA: VISVALDAS KAIRYS, HUI LI
     NATIONAL INST. OF STANDARDS AND TECHNOLOGY: WALT STEVENS, DAVID GARMER
     UNIVERSITY OF PISA: BENEDETTA MENNUCCI, JACOPO TOMASI
     UNIVERSITY OF MEMPHIS: HENRY KURTZ, PRAKASHAN KORAMBATH
     UNIVERSITY OF ALBERTA: TOBY ZENG, MARIUSZ KLOBUKOWSKI
     UNIVERSITY OF NEW ENGLAND: MARK SPACKMAN
     MIE UNIVERSITY: HIROAKI UMEDA
     NAT. INST. OF ADVANCED INDUSTRIAL SCIENCE AND TECHNOLOGY: KAZUO KITAURA
     MICHIGAN STATE UNIVERSITY:
          KAROL KOWALSKI, MARTA WLOCH, JEFFREY GOUR, JESSE LUTZ,
          WEI LI, PIOTR PIECUCH
     UNIVERSITY OF SILESIA: MONIKA MUSIAL, STANISLAW KUCHARSKI
     FACULTES UNIVERSITAIRES NOTRE-DAME DE LA PAIX:
          OLIVIER QUINET, BENOIT CHAMPAGNE
     UNIVERSITY OF CALIFORNIA - SANTA BARBARA: BERNARD KIRTMAN
     INSTITUTE FOR MOLECULAR SCIENCE:
          KAZUYA ISHIMURA, MICHIO KATOUDA, AND SHIGERU NAGASE
     UNIVERSITY OF NOTRE DAME: ANNA POMOGAEVA, DAN CHIPMAN
     KYUSHU UNIVERSITY:
          HARUYUKI NAKANO,
          FENG LONG GU, JACEK KORCHOWIEC, MARCIN MAKOWSKI, AND YURIKO AOKI,
          HIROTOSHI MORI AND EISAKU MIYOSHI
     PENNSYLVANIA STATE UNIVERSITY:
          TZVETELIN IORDANOV, CHET SWALINA, JONATHAN SKONE,
          SHARON HAMMES-SCHIFFER
     WASEDA UNIVERSITY:
          MASATO KOBAYASHI, TOMOKO AKAMA, TSUGUKI TOUMA,
          TAKESHI YOSHIKAWA, YASUHIRO IKABATA, JUNJI SEINO,
          YUYA NAKAJIMA, HIROMI NAKAI
     NANJING UNIVERSITY: SHUHUA LI
     UNIVERSITY OF NEBRASKA:
          PEIFENG SU, DEJUN SI, NANDUN THELLAMUREGE, YALI WANG, HUI LI
     UNIVERSITY OF ZURICH: ROBERTO PEVERATI, KIM BALDRIDGE
     N. COPERNICUS UNIVERSITY AND JACKSON STATE UNIVERSITY:
          MARIA BARYSZ
     UNIVERSITY OF COPENHAGEN: Jimmy Kromann, CASPER STEINMANN
     TOKYO INSTITUTE OF TECHNOLOGY: HIROYA NAKATA
     NAGOYA UNIVERSITY: YOSHIO NISHIMOTO, STEPHAN IRLE
     MOSCOW STATE UNIVERSITY: VLADIMIR MIRONOV


 PARALLEL VERSION RUNNING ON       16 PROCESSORS IN        1 NODES.

 EXECUTION OF GAMESS BEGUN Wed Apr 12 18:20:44 2017

            ECHO OF THE FIRST FEW INPUT CARDS -
 INPUT CARD> $contrl coord=unique icharg=0 ispher=1 mult=1 runtyp=energy                    
 INPUT CARD>         scftyp=rhf cityp=cis units=bohr  $end                                  
 INPUT CARD> $basis  gbasis=cct  $end                                                       
 INPUT CARD> $guess  guess=huckel  $end                                                     
 INPUT CARD> $cis    nstate=5 $end                                                          
 INPUT CARD> $DATA                                                                          
 INPUT CARD>A molecule.                                                                     
 INPUT CARD>C1                                                                              
 INPUT CARD>H 1.00       0.00000000       0.00000000       0.00000000                       
 INPUT CARD>H 1.00       2.200000000       0.00000000       0.00000000                      
 INPUT CARD> $END                                                                           
    1000000 WORDS OF MEMORY AVAILABLE

     BASIS OPTIONS
     -------------
     GBASIS=CCT          IGAUSS=       0      POLAR=NONE    
     NDFUNC=       0     NFFUNC=       0     DIFFSP=       F
     NPFUNC=       0      DIFFS=       F     BASNAM=        


     RUN TITLE
     ---------
 A molecule.                                                                     

 THE POINT GROUP OF THE MOLECULE IS C1      
 THE ORDER OF THE PRINCIPAL AXIS IS     0

 ATOM      ATOMIC                      COORDINATES (BOHR)
           CHARGE         X                   Y                   Z
 H           1.0     0.0000000000        0.0000000000        0.0000000000
 H           1.0     2.2000000000        0.0000000000        0.0000000000

          INTERNUCLEAR DISTANCES (ANGS.)
          ------------------------------

                1 H          2 H     

   1 H       0.0000000    1.1641899 *
   2 H       1.1641899 *  0.0000000  

  * ... LESS THAN  3.000


     ATOMIC BASIS SET
     ----------------
 THE CONTRACTED PRIMITIVE FUNCTIONS HAVE BEEN UNNORMALIZED
 THE CONTRACTED BASIS FUNCTIONS ARE NOW NORMALIZED TO UNITY

  SHELL TYPE  PRIMITIVE        EXPONENT          CONTRACTION COEFFICIENT(S)

 H         

      1   S       1            33.8700000    0.025494863235
      1   S       2             5.0950000    0.190362765893
      1   S       3             1.1590000    0.852162022245

      2   S       4             0.3258000    1.000000000000

      3   S       5             0.1027000    1.000000000000

      4   P       6             1.4070000    1.000000000000

      5   P       7             0.3880000    1.000000000000

      6   D       8             1.0570000    1.000000000000

 H         

      7   S       9            33.8700000    0.025494863235
      7   S      10             5.0950000    0.190362765893
      7   S      11             1.1590000    0.852162022245

      8   S      12             0.3258000    1.000000000000

      9   S      13             0.1027000    1.000000000000

     10   P      14             1.4070000    1.000000000000

     11   P      15             0.3880000    1.000000000000

     12   D      16             1.0570000    1.000000000000

 TOTAL NUMBER OF BASIS SET SHELLS             =   12
 NUMBER OF CARTESIAN GAUSSIAN BASIS FUNCTIONS =   30
 NOTE: THIS RUN WILL RESTRICT THE MO VARIATION SPACE TO SPHERICAL HARMONICS.
 THE NUMBER OF ORBITALS KEPT IN THE VARIATIONAL SPACE WILL BE PRINTED LATER.
 NUMBER OF ELECTRONS                          =    2
 CHARGE OF MOLECULE                           =    0
 SPIN MULTIPLICITY                            =    1
 NUMBER OF OCCUPIED ORBITALS (ALPHA)          =    1
 NUMBER OF OCCUPIED ORBITALS (BETA )          =    1
 TOTAL NUMBER OF ATOMS                        =    2
 THE NUCLEAR REPULSION ENERGY IS        0.4545454545

 THIS MOLECULE IS RECOGNIZED AS BEING LINEAR,
 ORBITAL LZ DEGENERACY TOLERANCE ETOLLZ= 1.00E-06

     $CONTRL OPTIONS
     ---------------
 SCFTYP=RHF          RUNTYP=ENERGY       EXETYP=RUN     
 MPLEVL=       0     CITYP =CIS          CCTYP =NONE         VBTYP =NONE    
 DFTTYP=NONE         TDDFT =NONE    
 MULT  =       1     ICHARG=       0     NZVAR =       0     COORD =UNIQUE  
 PP    =NONE         RELWFN=NONE         LOCAL =NONE         NUMGRD=       F
 ISPHER=       1     NOSYM =       0     MAXIT =      30     UNITS =BOHR    
 PLTORB=       F     MOLPLT=       F     AIMPAC=       F     FRIEND=        
 NPRINT=       7     IREST =       0     GEOM  =INPUT   
 NORMF =       0     NORMP =       0     ITOL  =      20     ICUT  =       9
 INTTYP=BEST         GRDTYP=BEST         QMTTOL= 1.0E-06

     $SYSTEM OPTIONS
     ---------------
  REPLICATED MEMORY=     1000000 WORDS (ON EVERY NODE).
 DISTRIBUTED MEMDDI=           0 MILLION WORDS IN AGGREGATE,
 MEMDDI DISTRIBUTED OVER  16 PROCESSORS IS           0 WORDS/PROCESSOR.
 TOTAL MEMORY REQUESTED ON EACH PROCESSOR=     1000000 WORDS.
 TIMLIM=      525600.00 MINUTES, OR     365.0 DAYS.
 PARALL= T  BALTYP=  DLB     KDIAG=    0  COREFL= F
 MXSEQ2=     300 MXSEQ3=     150  mem10=         0

          ----------------
          PROPERTIES INPUT
          ----------------

     MOMENTS            FIELD           POTENTIAL          DENSITY
 IEMOM =       1   IEFLD =       0   IEPOT =       0   IEDEN =       0
 WHERE =COMASS     WHERE =NUCLEI     WHERE =NUCLEI     WHERE =NUCLEI  
 OUTPUT=BOTH       OUTPUT=BOTH       OUTPUT=BOTH       OUTPUT=BOTH    
 IEMINT=       0   IEFINT=       0                     IEDINT=       0
                                                       MORB  =       0
          EXTRAPOLATION IN EFFECT
          SOSCF IN EFFECT
 ORBITAL PRINTING OPTION: NPREO=     1    30     2     1

     -------------------------------
     INTEGRAL TRANSFORMATION OPTIONS
     -------------------------------
     NWORD  =            0
     CUTOFF = 1.0E-09     MPTRAN =       0
     DIRTRF =       F     AOINTS =DUP     

          ----------------------
          INTEGRAL INPUT OPTIONS
          ----------------------
 NOPK  =       1 NORDER=       0 SCHWRZ=       F

     ------------------------------
     CI-SINGLES CONTROL INFORMATION
     ------------------------------
     NACORE =        0  NBCORE   =        0
     NSTATE =        5  IROOT    =        1
     HAMTYP = SAPS      SAP MULT =        1
     DIAGZN = DAVID     MXVEC    =       40
     NDAVIT =       50  DAVCVG   = 1.00E-05
     CISPRP =        F  NGSVEC   =       10
     MNMEDG =        F  MNMEOP   =        F
     CHFSLV = CONJG     RDCISV   =        F
     DGAPRX =        T

     NUMBER OF CORE -A-  ORBITALS =     0
     NUMBER OF CORE -B-  ORBITALS =     0
     NUMBER OF OCC. -A-  ORBITALS =     1
     NUMBER OF OCC. -B-  ORBITALS =     1
     NUMBER OF MOLECULAR ORBITALS =    30
     NUMBER OF   BASIS  FUNCTIONS =    30


     ------------------------------------------
     THE POINT GROUP IS C1 , NAXIS= 0, ORDER= 1
     ------------------------------------------

 -- VARIATIONAL SPACE WILL BE RESTRICTED TO PURE SPHERICAL HARMONICS ONLY --
 AFTER EXCLUDING CONTAMINANT COMBINATIONS FROM THE CARTESIAN GAUSSIAN BASIS
 SET, THE NUMBER OF SPHERICAL HARMONICS KEPT IN THE VARIATION SPACE IS   28

     DIMENSIONS OF THE SYMMETRY SUBSPACES ARE
 A   =   28

 ..... DONE SETTING UP THE RUN .....
 CPU     0: STEP CPU TIME=     0.02 TOTAL CPU TIME=        0.0 (    0.0 MIN)
 TOTAL WALL CLOCK TIME=        0.0 SECONDS, CPU UTILIZATION IS  66.67%

          ********************
          1 ELECTRON INTEGRALS
          ********************
 ...... END OF ONE-ELECTRON INTEGRALS ......
 CPU     0: STEP CPU TIME=     0.00 TOTAL CPU TIME=        0.0 (    0.0 MIN)
 TOTAL WALL CLOCK TIME=        0.1 SECONDS, CPU UTILIZATION IS  16.67%

          -------------
          GUESS OPTIONS
          -------------
          GUESS =HUCKEL            NORB  =       0          NORDER=       0
          MIX   =       F          PRTMO =       F          PUNMO =       F
          TOLZ  = 1.0E-08          TOLE  = 1.0E-05
          SYMDEN=       F          PURIFY=       F

 INITIAL GUESS ORBITALS GENERATED BY HUCKEL   ROUTINE.
 HUCKEL GUESS REQUIRES      8082 WORDS.

 STATISTICS FOR GENERATION OF SYMMETRY ORBITAL -Q- MATRIX
 NUMBER OF CARTESIAN ATOMIC ORBITALS=         30
 NUMBER OF SPHERICAL CONTAMINANTS DROPPED=     2
 NUMBER OF LINEARLY DEPENDENT MOS DROPPED=     0
 TOTAL NUMBER OF MOS IN VARIATION SPACE=      28

 SYMMETRIES FOR INITIAL GUESS ORBITALS FOLLOW.   BOTH SET(S).
     1 ORBITALS ARE OCCUPIED (    0 CORE ORBITALS).
     1=A        2=A        3=A        4=A        5=A        6=A        7=A   
     8=A        9=A       10=A       11=A   
 ...... END OF INITIAL ORBITAL SELECTION ......
 CPU     0: STEP CPU TIME=     0.00 TOTAL CPU TIME=        0.0 (    0.0 MIN)
 TOTAL WALL CLOCK TIME=        0.2 SECONDS, CPU UTILIZATION IS  12.50%

                    ----------------------
                    AO INTEGRAL TECHNOLOGY
                    ----------------------
     S,P,L SHELL ROTATED AXIS INTEGRALS, REPROGRAMMED BY
        KAZUYA ISHIMURA (IMS) AND JOSE SIERRA (SYNSTAR).
     S,P,D,L SHELL ROTATED AXIS INTEGRALS PROGRAMMED BY
        KAZUYA ISHIMURA (INSTITUTE FOR MOLECULAR SCIENCE).
     S,P,D,F,G SHELL TO TOTAL QUARTET ANGULAR MOMENTUM SUM 5,
        ERIC PROGRAM BY GRAHAM FLETCHER (ELORET AND NASA ADVANCED
        SUPERCOMPUTING DIVISION, AMES RESEARCH CENTER).
     S,P,D,F,G,L SHELL GENERAL RYS QUADRATURE PROGRAMMED BY
        MICHEL DUPUIS (PACIFIC NORTHWEST NATIONAL LABORATORY).

          --------------------
          2 ELECTRON INTEGRALS
          --------------------

 THE -PK- OPTION IS OFF, THE INTEGRALS ARE NOT IN SUPERMATRIX FORM.
 STORING   15000 INTEGRALS/RECORD ON DISK, USING 12 BYTES/INTEGRAL.
 TWO ELECTRON INTEGRAL EVALUATION REQUIRES   90474 WORDS OF MEMORY.
 II,JST,KST,LST =  1  1  1  1 NREC =         1 INTLOC =    1
 II,JST,KST,LST =  2  1  1  1 NREC =         1 INTLOC =    1
 II,JST,KST,LST =  3  1  1  1 NREC =         1 INTLOC =    2
 II,JST,KST,LST =  4  1  1  1 NREC =         1 INTLOC =    3
 II,JST,KST,LST =  5  1  1  1 NREC =         1 INTLOC =    3
 II,JST,KST,LST =  6  1  1  1 NREC =         1 INTLOC =    3
 II,JST,KST,LST =  7  1  1  1 NREC =         1 INTLOC =   18
 II,JST,KST,LST =  8  1  1  1 NREC =         1 INTLOC =   18
 II,JST,KST,LST =  9  1  1  1 NREC =         1 INTLOC =   30
 II,JST,KST,LST = 10  1  1  1 NREC =         1 INTLOC =   42
 II,JST,KST,LST = 11  1  1  1 NREC =         1 INTLOC =  138
 II,JST,KST,LST = 12  1  1  1 NREC =         1 INTLOC = 1246
 TOTAL NUMBER OF NONZERO TWO-ELECTRON INTEGRALS =               28697
         16 INTEGRAL RECORDS WERE STORED ON DISK FILE  8.
  ...... END OF TWO-ELECTRON INTEGRALS .....
 CPU     0: STEP CPU TIME=     0.03 TOTAL CPU TIME=        0.0 (    0.0 MIN)
 TOTAL WALL CLOCK TIME=        0.2 SECONDS, CPU UTILIZATION IS  21.74%

          --------------------------
                 RHF SCF CALCULATION
          --------------------------

     NUCLEAR ENERGY =         0.4545454545
     MAXIT =   30     NPUNCH=    2
     EXTRAP=T  DAMP=F  SHIFT=F  RSTRCT=F  DIIS=F  DEM=F  SOSCF=T
     DENSITY MATRIX CONV=  1.00E-06
     SOSCF WILL OPTIMIZE      27 ORBITAL ROTATIONS, SOGTOL=   0.250
     MEMORY REQUIRED FOR RHF ITERS=     36828 WORDS.

 ITER EX DEM     TOTAL ENERGY        E CHANGE  DENSITY CHANGE     ORB. GRAD
   1  0  0       -1.0172682035    -1.0172682035   0.081584939   0.000000000
          ---------------START SECOND ORDER SCF---------------
   2  1  0       -1.0677586477    -0.0504904442   0.029257685   0.023225400
   3  2  0       -1.0699954389    -0.0022367912   0.008535168   0.004801836
   4  3  0       -1.0700959106    -0.0001004718   0.000072999   0.000220101
   5  4  0       -1.0700960038    -0.0000000931   0.000017814   0.000028988
   6  5  0       -1.0700960061    -0.0000000023   0.000000659   0.000001317
   7  6  0       -1.0700960061    -0.0000000000   0.000000160   0.000000243

          -----------------
          DENSITY CONVERGED
          -----------------
     TIME TO FORM FOCK OPERATORS=       0.0 SECONDS (       0.0 SEC/ITER)
     TIME TO SOLVE SCF EQUATIONS=       0.0 SECONDS (       0.0 SEC/ITER)

 FINAL RHF ENERGY IS       -1.0700960061 AFTER   7 ITERATIONS

 LZ VALUE ANALYSIS FOR THE MOS
 ----------------------------------------
 MO     1 (    1) HAS LZ(WEIGHT)= 0.00(100.0%) 
 MO     2 (    2) HAS LZ(WEIGHT)= 0.00(100.0%) 
 MO     3 (    3) HAS LZ(WEIGHT)= 0.00(100.0%) 
 MO     4 (    4) HAS LZ(WEIGHT)= 0.00(100.0%) 
 MO     5 (    5) HAS LZ(WEIGHT)= 0.00(100.0%) 
 MO     6 (    5) HAS LZ(WEIGHT)= 0.00(100.0%) 
 MO     7 (    6) HAS LZ(WEIGHT)= 0.00(100.0%) 
 MO     8 (    7) HAS LZ(WEIGHT)= 0.00(100.0%) 
 MO     9 (    7) HAS LZ(WEIGHT)= 0.00(100.0%) 
 MO    10 (    8) HAS LZ(WEIGHT)= 0.00(100.0%) 
 MO    11 (    9) HAS LZ(WEIGHT)= 0.00(100.0%) 
 MO    12 (   10) HAS LZ(WEIGHT)= 0.00(100.0%) 
 MO    13 (   11) HAS LZ(WEIGHT)= 0.00(100.0%) 
 MO    14 (   11) HAS LZ(WEIGHT)= 0.00(100.0%) 
 MO    15 (   12) HAS LZ(WEIGHT)= 0.00(100.0%) 
 MO    16 (   13) HAS LZ(WEIGHT)= 0.00(100.0%) 
 MO    17 (   13) HAS LZ(WEIGHT)= 0.00(100.0%) 
 MO    18 (   14) HAS LZ(WEIGHT)= 0.00(100.0%) 
 MO    19 (   14) HAS LZ(WEIGHT)= 0.00(100.0%) 
 MO    20 (   15) HAS LZ(WEIGHT)= 0.00(100.0%) 
 MO    21 (   15) HAS LZ(WEIGHT)= 0.00(100.0%) 
 MO    22 (   16) HAS LZ(WEIGHT)= 0.00(100.0%) 
 MO    23 (   16) HAS LZ(WEIGHT)= 0.00(100.0%) 
 MO    24 (   17) HAS LZ(WEIGHT)= 0.00(100.0%) 
 MO    25 (   18) HAS LZ(WEIGHT)= 0.00(100.0%) 
 MO    26 (   18) HAS LZ(WEIGHT)= 0.00(100.0%) 
 MO    27 (   19) HAS LZ(WEIGHT)= 0.00(100.0%) 
 MO    28 (   20) HAS LZ(WEIGHT)= 0.00(100.0%) 

          ------------
          EIGENVECTORS
          ------------

                      1          2          3          4          5
                   -0.4928     0.0938     0.3420     0.5004     0.6658
                     A          A          A          A          A   
    1  H  1  S    0.150966  -0.117078  -0.046088  -0.113451   0.000000
    2  H  1  S    0.281909  -0.107204  -0.864025  -0.985944   0.000000
    3  H  1  S    0.205975  -1.277391   0.900617   1.808194   0.000000
    4  H  1  X    0.005862   0.011426  -0.002305  -0.015158   0.000000
    5  H  1  Y    0.000000   0.000000   0.000000   0.000000  -0.056300
    6  H  1  Z    0.000000   0.000000   0.000000   0.000000  -0.022826
    7  H  1  X    0.024438  -0.003635  -0.035556   0.256069   0.000000
    8  H  1  Y    0.000000   0.000000   0.000000   0.000000   0.586612
    9  H  1  Z    0.000000   0.000000   0.000000   0.000000   0.237836
   10  H  1 XX    0.002454   0.000340   0.009576   0.011035   0.000000
   11  H  1 YY   -0.001227  -0.000170  -0.004788  -0.005518   0.000000
   12  H  1 ZZ   -0.001227  -0.000170  -0.004788  -0.005518   0.000000
   13  H  1 XY    0.000000   0.000000   0.000000   0.000000  -0.010955
   14  H  1 XZ    0.000000   0.000000   0.000000   0.000000  -0.004441
   15  H  1 YZ    0.000000   0.000000   0.000000   0.000000   0.000000
   16  H  2  S    0.150966   0.117078  -0.046088   0.113451   0.000000
   17  H  2  S    0.281909   0.107204  -0.864025   0.985944   0.000000
   18  H  2  S    0.205975   1.277391   0.900617  -1.808194   0.000000
   19  H  2  X   -0.005862   0.011426   0.002305  -0.015158   0.000000
   20  H  2  Y    0.000000   0.000000   0.000000   0.000000  -0.056300
   21  H  2  Z    0.000000   0.000000   0.000000   0.000000  -0.022826
   22  H  2  X   -0.024438  -0.003635   0.035556   0.256069   0.000000
   23  H  2  Y    0.000000   0.000000   0.000000   0.000000   0.586612
   24  H  2  Z    0.000000   0.000000   0.000000   0.000000   0.237836
   25  H  2 XX    0.002454  -0.000340   0.009576  -0.011035   0.000000
   26  H  2 YY   -0.001227   0.000170  -0.004788   0.005518   0.000000
   27  H  2 ZZ   -0.001227   0.000170  -0.004788   0.005518   0.000000
   28  H  2 XY    0.000000   0.000000   0.000000   0.000000   0.010955
   29  H  2 XZ    0.000000   0.000000   0.000000   0.000000   0.004441
   30  H  2 YZ    0.000000   0.000000   0.000000   0.000000   0.000000

                      6          7          8          9         10
                    0.6658     0.9417     1.0204     1.0204     1.4380
                     A          A          A          A          A   
    1  H  1  S    0.000000   0.014456   0.000000   0.000000   0.059210
    2  H  1  S    0.000000  -0.552940   0.000000   0.000000   1.782367
    3  H  1  S    0.000000   0.289799   0.000000   0.000000   0.762508
    4  H  1  X    0.000000  -0.075949   0.000000   0.000000  -0.122240
    5  H  1  Y    0.022826   0.000000   0.042022   0.074743   0.000000
    6  H  1  Z   -0.056300   0.000000   0.074743  -0.042022   0.000000
    7  H  1  X    0.000000   0.730453   0.000000   0.000000   2.260066
    8  H  1  Y   -0.237836   0.000000  -0.475107  -0.845063   0.000000
    9  H  1  Z    0.586612   0.000000  -0.845063   0.475107   0.000000
   10  H  1 XX    0.000000  -0.025545   0.000000   0.000000   0.113354
   11  H  1 YY    0.000000   0.012772   0.000000   0.000000  -0.056677
   12  H  1 ZZ    0.000000   0.012772   0.000000   0.000000  -0.056677
   13  H  1 XY    0.004441   0.000000  -0.000794  -0.001412   0.000000
   14  H  1 XZ   -0.010955   0.000000  -0.001412   0.000794   0.000000
   15  H  1 YZ    0.000000   0.000000   0.000000   0.000000   0.000000
   16  H  2  S    0.000000   0.014456   0.000000   0.000000  -0.059210
   17  H  2  S    0.000000  -0.552940   0.000000   0.000000  -1.782367
   18  H  2  S    0.000000   0.289799   0.000000   0.000000  -0.762508
   19  H  2  X    0.000000   0.075949   0.000000   0.000000  -0.122240
   20  H  2  Y    0.022826   0.000000  -0.042022  -0.074743   0.000000
   21  H  2  Z   -0.056300   0.000000  -0.074743   0.042022   0.000000
   22  H  2  X    0.000000  -0.730453   0.000000   0.000000   2.260066
   23  H  2  Y   -0.237836   0.000000   0.475107   0.845063   0.000000
   24  H  2  Z    0.586612   0.000000   0.845063  -0.475107   0.000000
   25  H  2 XX    0.000000  -0.025545   0.000000   0.000000  -0.113354
   26  H  2 YY    0.000000   0.012772   0.000000   0.000000   0.056677
   27  H  2 ZZ    0.000000   0.012772   0.000000   0.000000   0.056677
   28  H  2 XY   -0.004441   0.000000  -0.000794  -0.001412   0.000000
   29  H  2 XZ    0.010955   0.000000  -0.001412   0.000794   0.000000
   30  H  2 YZ    0.000000   0.000000   0.000000   0.000000   0.000000

                     11         12         13         14         15
                    2.5680     2.7025     3.1297     3.1297     3.2629
                     A          A          A          A          A   
    1  H  1  S   -1.046872  -1.163074   0.000000   0.000000  -0.268694
    2  H  1  S    1.178512   2.404585   0.000000   0.000000   0.286988
    3  H  1  S   -0.464190  -0.716402   0.000000   0.000000  -0.084413
    4  H  1  X   -0.048160  -0.019741   0.000000   0.000000   0.633306
    5  H  1  Y    0.000000   0.000000   0.024565   0.183867   0.000000
    6  H  1  Z    0.000000   0.000000   0.183867  -0.024565   0.000000
    7  H  1  X    0.006709   0.896407   0.000000   0.000000  -0.399396
    8  H  1  Y    0.000000   0.000000  -0.023879  -0.178727   0.000000
    9  H  1  Z    0.000000   0.000000  -0.178727   0.023879   0.000000
   10  H  1 XX   -0.174604   0.041832   0.000000   0.000000   0.324654
   11  H  1 YY    0.087302  -0.020916   0.000000   0.000000  -0.162327
   12  H  1 ZZ    0.087302  -0.020916   0.000000   0.000000  -0.162327
   13  H  1 XY    0.000000   0.000000   0.080646   0.603621   0.000000
   14  H  1 XZ    0.000000   0.000000   0.603621  -0.080646   0.000000
   15  H  1 YZ    0.000000   0.000000   0.000000   0.000000   0.000000
   16  H  2  S   -1.046872   1.163074   0.000000   0.000000  -0.268694
   17  H  2  S    1.178512  -2.404585   0.000000   0.000000   0.286988
   18  H  2  S   -0.464190   0.716402   0.000000   0.000000  -0.084413
   19  H  2  X    0.048160  -0.019741   0.000000   0.000000  -0.633306
   20  H  2  Y    0.000000   0.000000   0.024565   0.183867   0.000000
   21  H  2  Z    0.000000   0.000000   0.183867  -0.024565   0.000000
   22  H  2  X   -0.006709   0.896407   0.000000   0.000000   0.399396
   23  H  2  Y    0.000000   0.000000  -0.023879  -0.178727   0.000000
   24  H  2  Z    0.000000   0.000000  -0.178727   0.023879   0.000000
   25  H  2 XX   -0.174604  -0.041832   0.000000   0.000000   0.324654
   26  H  2 YY    0.087302   0.020916   0.000000   0.000000  -0.162327
   27  H  2 ZZ    0.087302   0.020916   0.000000   0.000000  -0.162327
   28  H  2 XY    0.000000   0.000000  -0.080646  -0.603621   0.000000
   29  H  2 XZ    0.000000   0.000000  -0.603621   0.080646   0.000000
   30  H  2 YZ    0.000000   0.000000   0.000000   0.000000   0.000000

                     16         17         18         19         20
                    3.2703     3.2703     3.6866     3.6866     3.9003
                     A          A          A          A          A   
    1  H  1  S    0.000000   0.000000   0.000000   0.000000   0.000000
    2  H  1  S    0.000000   0.000000   0.000000   0.000000   0.000000
    3  H  1  S    0.000000   0.000000   0.000000   0.000000   0.000000
    4  H  1  X    0.000000   0.000000   0.000000   0.000000   0.000000
    5  H  1  Y    0.000000   0.000000   0.000000   0.000000   0.811278
    6  H  1  Z    0.000000   0.000000   0.000000   0.000000  -0.327620
    7  H  1  X    0.000000   0.000000   0.000000   0.000000   0.000000
    8  H  1  Y    0.000000   0.000000   0.000000   0.000000  -0.385368
    9  H  1  Z    0.000000   0.000000   0.000000   0.000000   0.155624
   10  H  1 XX    0.000000   0.000000   0.000000   0.000000   0.000000
   11  H  1 YY   -0.589077   0.032062  -0.409861   0.488367   0.000000
   12  H  1 ZZ    0.589077  -0.032062   0.409861  -0.488367   0.000000
   13  H  1 XY    0.000000   0.000000   0.000000   0.000000  -0.128464
   14  H  1 XZ    0.000000   0.000000   0.000000   0.000000   0.051878
   15  H  1 YZ    0.037022   0.680207  -0.563917  -0.473267   0.000000
   16  H  2  S    0.000000   0.000000   0.000000   0.000000   0.000000
   17  H  2  S    0.000000   0.000000   0.000000   0.000000   0.000000
   18  H  2  S    0.000000   0.000000   0.000000   0.000000   0.000000
   19  H  2  X    0.000000   0.000000   0.000000   0.000000   0.000000
   20  H  2  Y    0.000000   0.000000   0.000000   0.000000   0.811278
   21  H  2  Z    0.000000   0.000000   0.000000   0.000000  -0.327620
   22  H  2  X    0.000000   0.000000   0.000000   0.000000   0.000000
   23  H  2  Y    0.000000   0.000000   0.000000   0.000000  -0.385368
   24  H  2  Z    0.000000   0.000000   0.000000   0.000000   0.155624
   25  H  2 XX    0.000000   0.000000   0.000000   0.000000   0.000000
   26  H  2 YY   -0.589077   0.032062   0.409861  -0.488367   0.000000
   27  H  2 ZZ    0.589077  -0.032062  -0.409861   0.488367   0.000000
   28  H  2 XY    0.000000   0.000000   0.000000   0.000000   0.128464
   29  H  2 XZ    0.000000   0.000000   0.000000   0.000000  -0.051878
   30  H  2 YZ    0.037022   0.680207   0.563917   0.473267   0.000000

                     21         22         23         24         25
                    3.9003     3.9856     3.9856     4.0618     4.5304
                     A          A          A          A          A   
    1  H  1  S    0.000000   0.000000   0.000000  -0.173556   0.000000
    2  H  1  S    0.000000   0.000000   0.000000   1.742759   0.000000
    3  H  1  S    0.000000   0.000000   0.000000   0.372789   0.000000
    4  H  1  X    0.000000   0.000000   0.000000  -0.742759   0.000000
    5  H  1  Y    0.327620   0.025492   0.911578   0.000000   0.029665
    6  H  1  Z    0.811278  -0.911578   0.025492   0.000000   0.010665
    7  H  1  X    0.000000   0.000000   0.000000   1.886883   0.000000
    8  H  1  Y   -0.155624  -0.018465  -0.660309   0.000000   0.304642
    9  H  1  Z   -0.385368   0.660309  -0.018465   0.000000   0.109527
   10  H  1 XX    0.000000   0.000000   0.000000   0.664347   0.000000
   11  H  1 YY    0.000000   0.000000   0.000000  -0.332174   0.000000
   12  H  1 ZZ    0.000000   0.000000   0.000000  -0.332174   0.000000
   13  H  1 XY   -0.051878  -0.002664  -0.095248   0.000000   0.859175
   14  H  1 XZ   -0.128464   0.095248  -0.002664   0.000000   0.308896
   15  H  1 YZ    0.000000   0.000000   0.000000   0.000000   0.000000
   16  H  2  S    0.000000   0.000000   0.000000   0.173556   0.000000
   17  H  2  S    0.000000   0.000000   0.000000  -1.742759   0.000000
   18  H  2  S    0.000000   0.000000   0.000000  -0.372789   0.000000
   19  H  2  X    0.000000   0.000000   0.000000  -0.742759   0.000000
   20  H  2  Y    0.327620  -0.025492  -0.911578   0.000000  -0.029665
   21  H  2  Z    0.811278   0.911578  -0.025492   0.000000  -0.010665
   22  H  2  X    0.000000   0.000000   0.000000   1.886883   0.000000
   23  H  2  Y   -0.155624   0.018465   0.660309   0.000000  -0.304642
   24  H  2  Z   -0.385368  -0.660309   0.018465   0.000000  -0.109527
   25  H  2 XX    0.000000   0.000000   0.000000  -0.664347   0.000000
   26  H  2 YY    0.000000   0.000000   0.000000   0.332174   0.000000
   27  H  2 ZZ    0.000000   0.000000   0.000000   0.332174   0.000000
   28  H  2 XY    0.051878  -0.002664  -0.095248   0.000000   0.859175
   29  H  2 XZ    0.128464   0.095248  -0.002664   0.000000   0.308896
   30  H  2 YZ    0.000000   0.000000   0.000000   0.000000   0.000000

                     26         27         28
                    4.5304     4.6643     5.8747
                     A          A          A   
    1  H  1  S    0.000000   0.331962   0.313759
    2  H  1  S    0.000000  -0.030084  -2.388725
    3  H  1  S    0.000000  -0.038528   0.169010
    4  H  1  X    0.000000   0.749759  -0.623402
    5  H  1  Y   -0.010665   0.000000   0.000000
    6  H  1  Z    0.029665   0.000000   0.000000
    7  H  1  X    0.000000  -0.527295  -1.517374
    8  H  1  Y   -0.109527   0.000000   0.000000
    9  H  1  Z    0.304642   0.000000   0.000000
   10  H  1 XX    0.000000  -0.582282  -1.191887
   11  H  1 YY    0.000000   0.291141   0.595944
   12  H  1 ZZ    0.000000   0.291141   0.595944
   13  H  1 XY   -0.308896   0.000000   0.000000
   14  H  1 XZ    0.859175   0.000000   0.000000
   15  H  1 YZ    0.000000   0.000000   0.000000
   16  H  2  S    0.000000   0.331962  -0.313759
   17  H  2  S    0.000000  -0.030084   2.388725
   18  H  2  S    0.000000  -0.038528  -0.169010
   19  H  2  X    0.000000  -0.749759  -0.623402
   20  H  2  Y    0.010665   0.000000   0.000000
   21  H  2  Z   -0.029665   0.000000   0.000000
   22  H  2  X    0.000000   0.527295  -1.517374
   23  H  2  Y    0.109527   0.000000   0.000000
   24  H  2  Z   -0.304642   0.000000   0.000000
   25  H  2 XX    0.000000  -0.582282   1.191887
   26  H  2 YY    0.000000   0.291141  -0.595944
   27  H  2 ZZ    0.000000   0.291141  -0.595944
   28  H  2 XY   -0.308896   0.000000   0.000000
   29  H  2 XZ    0.859175   0.000000   0.000000
   30  H  2 YZ    0.000000   0.000000   0.000000
 ...... END OF RHF CALCULATION ......
 CPU     0: STEP CPU TIME=     0.01 TOTAL CPU TIME=        0.1 (    0.0 MIN)
 TOTAL WALL CLOCK TIME=        0.6 SECONDS, CPU UTILIZATION IS  10.71%

     ----------------------------------------------------------------
     PROPERTY VALUES FOR THE RHF   SELF-CONSISTENT FIELD WAVEFUNCTION
     ----------------------------------------------------------------

          -----------------
          ENERGY COMPONENTS
          -----------------

         WAVEFUNCTION NORMALIZATION =       1.0000000000

                ONE ELECTRON ENERGY =      -2.0636203815
                TWO ELECTRON ENERGY =       0.5389789209
           NUCLEAR REPULSION ENERGY =       0.4545454545
                                      ------------------
                       TOTAL ENERGY =      -1.0700960061

 ELECTRON-ELECTRON POTENTIAL ENERGY =       0.5389789209
  NUCLEUS-ELECTRON POTENTIAL ENERGY =      -2.8985355260
   NUCLEUS-NUCLEUS POTENTIAL ENERGY =       0.4545454545
                                      ------------------
             TOTAL POTENTIAL ENERGY =      -1.9050111506
               TOTAL KINETIC ENERGY =       0.8349151445
                 VIRIAL RATIO (V/T) =       2.2816823520

  ...... PI ENERGY ANALYSIS ......

 ENERGY ANALYSIS:
            FOCK ENERGY=     -0.9856625639
          BARE H ENERGY=     -2.0636203815
     ELECTRONIC ENERGY =     -1.5246414727
         KINETIC ENERGY=      0.8349151445
          N-N REPULSION=      0.4545454545
           TOTAL ENERGY=     -1.0700960181
        SIGMA PART(1+2)=     -1.5246414727
               (K,V1,2)=      0.8349151445     -2.8985355260      0.5389789088
           PI PART(1+2)=      0.0000000000
               (K,V1,2)=      0.0000000000      0.0000000000      0.0000000000
  SIGMA SKELETON, ERROR=     -1.0700960181      0.0000000000
             MIXED PART= 0.00000E+00 0.00000E+00 0.00000E+00 0.00000E+00
 ...... END OF PI ENERGY ANALYSIS ......

          ---------------------------------------
          MULLIKEN AND LOWDIN POPULATION ANALYSES
          ---------------------------------------

               ----- POPULATIONS IN EACH AO -----
                             MULLIKEN      LOWDIN
              1  H  1  S      0.16602     0.13959
              2  H  1  S      0.47101     0.28939
              3  H  1  S      0.34642     0.33655
              4  H  1  X      0.00133     0.00166
              5  H  1  Y      0.00000     0.00000
              6  H  1  Z      0.00000     0.00000
              7  H  1  X      0.01479     0.02096
              8  H  1  Y      0.00000     0.00000
              9  H  1  Z      0.00000     0.00000
             10  H  1 XX      0.00011     0.08058
             11  H  1 YY      0.00032     0.06564
             12  H  1 ZZ      0.00000     0.06564
             13  H  1 XY      0.00000     0.00000
             14  H  1 XZ      0.00000     0.00000
             15  H  1 YZ      0.00000     0.00000
             16  H  2  S      0.16602     0.13959
             17  H  2  S      0.47101     0.28939
             18  H  2  S      0.34642     0.33655
             19  H  2  X      0.00133     0.00166
             20  H  2  Y      0.00000     0.00000
             21  H  2  Z      0.00000     0.00000
             22  H  2  X      0.01479     0.02096
             23  H  2  Y      0.00000     0.00000
             24  H  2  Z      0.00000     0.00000
             25  H  2 XX      0.00011     0.08058
             26  H  2 YY      0.00032     0.06564
             27  H  2 ZZ      0.00000     0.06564
             28  H  2 XY      0.00000     0.00000
             29  H  2 XZ      0.00000     0.00000
             30  H  2 YZ      0.00000     0.00000

          ----- MULLIKEN ATOMIC OVERLAP POPULATIONS -----
          (OFF-DIAGONAL ELEMENTS NEED TO BE MULTIPLIED BY 2)

             1           2

    1    0.6409294
    2    0.3590706   0.6409294

          TOTAL MULLIKEN AND LOWDIN ATOMIC POPULATIONS
       ATOM         MULL.POP.    CHARGE          LOW.POP.     CHARGE
    1 H             1.000000   -0.000000         1.000000   -0.000000
    2 H             1.000000   -0.000000         1.000000   -0.000000

          MULLIKEN SPHERICAL HARMONIC POPULATIONS
       ATOM           S       P       D      F      G      H      I    TOTAL
    1 H             0.98    0.02    0.00   0.00   0.00   0.00   0.00    1.00
    2 H             0.98    0.02    0.00   0.00   0.00   0.00   0.00    1.00

          ---------------------
          ELECTROSTATIC MOMENTS
          ---------------------

 POINT   1           X           Y           Z (BOHR)    CHARGE
                 1.100000    0.000000    0.000000       -0.00 (A.U.)
         DX          DY          DZ         /D/  (DEBYE)
     0.000000    0.000000    0.000000    0.000000
 ...... END OF PROPERTY EVALUATION ......
 CPU     0: STEP CPU TIME=     0.01 TOTAL CPU TIME=        0.1 (    0.0 MIN)
 TOTAL WALL CLOCK TIME=        0.7 SECONDS, CPU UTILIZATION IS  10.45%

 MXVEC CANNOT BE BIGGER THAN THE NUMBER OF CIS CONFIGS
 SETTING MXVEC = NCFG


          ---------------------------------------------
             ATOMIC ORBITAL BASIS CI-SINGLES ENERGY
             PROGRAM WRITTEN BY SIMON P. WEBB
          ---------------------------------------------

 # CORE ORBITALS      =    0
 # OCCUPIED ORBITALS  =    1
 # MOLECULAR ORBITALS =   28
 # BASIS FUNCTIONS    =   30

 NUMBER OF CIS SPIN-ADAPTED ANTISYMMETRIZED PRODUCTS (SAPS) IS      27

 APPROXIMATING CIS HAMILTONIAN DIAGONAL ELEMENTS USING ONLY ORBITAL ENERGIES

 -CIS- HAM. DIAGONAL ELEMENTS  TOOK      0.000 SECONDS

 MIN MEMORY REQ. FOR CIS ENERGY FOCK-LIKE BUILDS =      1800 WORDS
 MEMORY REQ. FOR SINGLE BATCH BUILDS             =     48600 WORDS
 MEMORY AVAILABLE                                =    958955 WORDS

 SINGLE BATCH ENERGY CALCULATION WILL BE PERFORMED

 UNIT VECTOR GUESS AT CIS COEFFICIENTS ...

 USING IN MEMORY DIAGONALIZTION TO FIND CIS EIGENVALUES AND EIGENVECTORS ...

 STATE    1 ENERGY=       -0.6937311366
 STATE    2 ENERGY=       -0.4761099389
 STATE    3 ENERGY=       -0.3294643349
 STATE    4 ENERGY=       -0.2285723050
 STATE    5 ENERGY=       -0.2285723050


        --------------------------------------------------------
        RESULTS FROM SPIN-ADAPTED ANTISYMMETRIZED PRODUCT (SAPS)
        BASED ATOMIC ORBITAL CI-SINGLES ENERGY CALCULATION
        --------------------------------------------------------

 PRINTING CIS COEFFICIENTS LARGER THAN  0.050000

 RHF REFERENCE ENERGY  =        -1.0700960061


 EXCITED STATE   1  ENERGY=        -0.6937311366  S = 0.0  SPACE SYM = A   

          ----------------------------------------------
          SINGLE EXCITATION               SAP COEFFICENT
          FROM MO     TO MO
          ----------------------------------------------
             1          2                   0.99945344
          ----------------------------------------------


 EXCITED STATE   2  ENERGY=        -0.4761099389  S = 0.0  SPACE SYM = A   

          ----------------------------------------------
          SINGLE EXCITATION               SAP COEFFICENT
          FROM MO     TO MO
          ----------------------------------------------
             1          3                   0.99991507
          ----------------------------------------------


 EXCITED STATE   3  ENERGY=        -0.3294643349  S = 0.0  SPACE SYM = A   

          ----------------------------------------------
          SINGLE EXCITATION               SAP COEFFICENT
          FROM MO     TO MO
          ----------------------------------------------
             1          4                  -0.99932527
          ----------------------------------------------


 EXCITED STATE   4  ENERGY=        -0.2285723050  S = 0.0  SPACE SYM = A   

          ----------------------------------------------
          SINGLE EXCITATION               SAP COEFFICENT
          FROM MO     TO MO
          ----------------------------------------------
             1          5                   0.66165652
             1          6                  -0.74978087
          ----------------------------------------------


 EXCITED STATE   5  ENERGY=        -0.2285723050  S = 0.0  SPACE SYM = A   

          ----------------------------------------------
          SINGLE EXCITATION               SAP COEFFICENT
          FROM MO     TO MO
          ----------------------------------------------
             1          5                  -0.74978087
             1          6                  -0.66165652
          ----------------------------------------------

  ---------------------------------------------------------------------
                    CI-SINGLES EXCITATION ENERGIES
  STATE       HARTREE        EV      KCAL/MOL       CM-1         NM
  ---------------------------------------------------------------------
   1A     0.3763648694    10.2414    236.1726      82602.54     121.06
   1A     0.5939860672    16.1632    372.7319     130364.87      76.71
   1A     0.7406316712    20.1536    464.7535     162549.86      61.52
   1A     0.8415237010    22.8990    528.0642     184693.10      54.14
   1A     0.8415237010    22.8990    528.0642     184693.10      54.14

 -CIS- ENERGY                  TOOK      0.000 SECONDS

  ---------------------------------------------------------------------
                    CIS TRANSITION DIPOLE MOMENTS AND
                    EXPECTATION VALUES OF DIPOLE MOMENTS
  ---------------------------------------------------------------------

 GROUND STATE (SCF) DIPOLE=     0.000000     0.000000     0.000000 DEBYE

 TRANSITION FROM THE GROUND STATE TO EXCITED STATE  1

 STATE MULTIPLICITIES =   1  1
 STATE ENERGIES =         -1.0700960061       -0.6937311366
 EXCITATION ENERGY =  2.4764E+15 [1/SEC] =    82602.54 [1/CM] =     10.24 [EV]
                            X           Y           Z           NORM
 TRANSITION DIPOLE =    1.809479    0.000000   -0.000000    1.809479 E*BOHR
 TRANSITION DIPOLE =    4.599272    0.000000   -0.000000    4.599272 DEBYE
 OSCILLATOR STRENGTH =    0.821533
 EINSTEIN COEFFICIENTS: A=  3.7390E+09 1/SEC; B=  1.3288E+09 SEC/G

 TRANSITION FROM THE GROUND STATE TO EXCITED STATE  2

 STATE MULTIPLICITIES =   1  1
 STATE ENERGIES =         -1.0700960061       -0.4761099389
 EXCITATION ENERGY =  3.9082E+15 [1/SEC] =   130364.87 [1/CM] =     16.16 [EV]
                            X           Y           Z           NORM
 TRANSITION DIPOLE =   -0.000000    0.000000   -0.000000    0.000000 E*BOHR
 TRANSITION DIPOLE =   -0.000000    0.000000   -0.000000    0.000000 DEBYE
 OSCILLATOR STRENGTH =    0.000000
 EINSTEIN COEFFICIENTS: A=  8.2473E-22 1/SEC; B=  7.4561E-23 SEC/G

 TRANSITION FROM THE GROUND STATE TO EXCITED STATE  3

 STATE MULTIPLICITIES =   1  1
 STATE ENERGIES =         -1.0700960061       -0.3294643349
 EXCITATION ENERGY =  4.8731E+15 [1/SEC] =   162549.86 [1/CM] =     20.15 [EV]
                            X           Y           Z           NORM
 TRANSITION DIPOLE =   -0.432782    0.000000   -0.000000    0.432782 E*BOHR
 TRANSITION DIPOLE =   -1.100030    0.000000   -0.000000    1.100030 DEBYE
 OSCILLATOR STRENGTH =    0.092480
 EINSTEIN COEFFICIENTS: A=  1.6299E+09 1/SEC; B=  7.6014E+07 SEC/G

 TRANSITION FROM THE GROUND STATE TO EXCITED STATE  4

 STATE MULTIPLICITIES =   1  1
 STATE ENERGIES =         -1.0700960061       -0.2285723050
 EXCITATION ENERGY =  5.5370E+15 [1/SEC] =   184693.10 [1/CM] =     22.90 [EV]
                            X           Y           Z           NORM
 TRANSITION DIPOLE =    0.000000    1.120106   -0.558539    1.251641 E*BOHR
 TRANSITION DIPOLE =    0.000000    2.847048   -1.419676    3.181377 DEBYE
 OSCILLATOR STRENGTH =    0.878890
 EINSTEIN COEFFICIENTS: A=  1.9998E+10 1/SEC; B=  6.3579E+08 SEC/G

 TRANSITION FROM THE GROUND STATE TO EXCITED STATE  5

 STATE MULTIPLICITIES =   1  1
 STATE ENERGIES =         -1.0700960061       -0.2285723050
 EXCITATION ENERGY =  5.5370E+15 [1/SEC] =   184693.10 [1/CM] =     22.90 [EV]
                            X           Y           Z           NORM
 TRANSITION DIPOLE =    0.000000   -0.558539   -1.120106    1.251641 E*BOHR
 TRANSITION DIPOLE =    0.000000   -1.419676   -2.847048    3.181377 DEBYE
 OSCILLATOR STRENGTH =    0.878890
 EINSTEIN COEFFICIENTS: A=  1.9998E+10 1/SEC; B=  6.3579E+08 SEC/G

 EXPECTATION VALUE DIPOLE MOMENT FOR EXCITED STATE  1

 STATE MULTIPLICITY =   1
 STATE ENERGY =         -0.6937311366
                            X           Y           Z           NORM
      STATE DIPOLE =   -0.000000   -0.000000    0.000000    0.000000 E*BOHR
      STATE DIPOLE =   -0.000000   -0.000000    0.000000    0.000000 DEBYE

 TRANSITION BETWEEN EXCITED STATES   1 AND  2

 STATE MULTIPLICITIES=  1  1
 STATE ENERGIES =         -0.6937311366       -0.4761099389
 TRANSITION ENERGY =  1.4319E+15 [1/SEC] =    47762.33 [1/CM] =        5.92 [EV]
                            X           Y           Z           NORM
 TRANSITION DIPOLE =    1.313776    0.000000   -0.000000    1.313776 E*BOHR
 TRANSITION DIPOLE =    3.339310    0.000000   -0.000000    3.339310 DEBYE
 OSCILLATOR STRENGTH =    0.250410
 EINSTEIN COEFFICIENTS: A=  3.8104E+08 1/SEC; B=  7.0049E+08 SEC/G

 TRANSITION BETWEEN EXCITED STATES   1 AND  3

 STATE MULTIPLICITIES=  1  1
 STATE ENERGIES =         -0.6937311366       -0.3294643349
 TRANSITION ENERGY =  2.3968E+15 [1/SEC] =    79947.32 [1/CM] =        9.91 [EV]
                            X           Y           Z           NORM
 TRANSITION DIPOLE =   -0.000000    0.000000   -0.000000    0.000000 E*BOHR
 TRANSITION DIPOLE =   -0.000000    0.000000   -0.000000    0.000000 DEBYE
 OSCILLATOR STRENGTH =    0.000000
 EINSTEIN COEFFICIENTS: A=  5.9761E-20 1/SEC; B=  2.3426E-20 SEC/G

 TRANSITION BETWEEN EXCITED STATES   1 AND  4

 STATE MULTIPLICITIES=  1  1
 STATE ENERGIES =         -0.6937311366       -0.2285723050
 TRANSITION ENERGY =  3.0606E+15 [1/SEC] =   102090.56 [1/CM] =       12.66 [EV]
                            X           Y           Z           NORM
 TRANSITION DIPOLE =    0.000000   -0.000000    0.000000    0.000000 E*BOHR
 TRANSITION DIPOLE =    0.000000   -0.000000    0.000000    0.000000 DEBYE
 OSCILLATOR STRENGTH =    0.000000
 EINSTEIN COEFFICIENTS: A=  1.0123E-20 1/SEC; B=  1.9056E-21 SEC/G

 TRANSITION BETWEEN EXCITED STATES   1 AND  5

 STATE MULTIPLICITIES=  1  1
 STATE ENERGIES =         -0.6937311366       -0.2285723050
 TRANSITION ENERGY =  3.0606E+15 [1/SEC] =   102090.56 [1/CM] =       12.66 [EV]
                            X           Y           Z           NORM
 TRANSITION DIPOLE =   -0.000000    0.000000    0.000000    0.000000 E*BOHR
 TRANSITION DIPOLE =   -0.000000    0.000000    0.000000    0.000000 DEBYE
 OSCILLATOR STRENGTH =    0.000000
 EINSTEIN COEFFICIENTS: A=  1.1816E-21 1/SEC; B=  2.2243E-22 SEC/G

 EXPECTATION VALUE DIPOLE MOMENT FOR EXCITED STATE  2

 STATE MULTIPLICITY =   1
 STATE ENERGY =         -0.4761099389
                            X           Y           Z           NORM
      STATE DIPOLE =   -0.000000    0.000000    0.000000    0.000000 E*BOHR
      STATE DIPOLE =   -0.000000    0.000000    0.000000    0.000000 DEBYE

 TRANSITION BETWEEN EXCITED STATES   2 AND  3

 STATE MULTIPLICITIES=  1  1
 STATE ENERGIES =         -0.4761099389       -0.3294643349
 TRANSITION ENERGY =  9.6488E+14 [1/SEC] =    32184.99 [1/CM] =        3.99 [EV]
                            X           Y           Z           NORM
 TRANSITION DIPOLE =    1.575313    0.000000   -0.000000    1.575313 E*BOHR
 TRANSITION DIPOLE =    4.004078    0.000000   -0.000000    4.004078 DEBYE
 OSCILLATOR STRENGTH =    0.242612
 EINSTEIN COEFFICIENTS: A=  1.6764E+08 1/SEC; B=  1.0071E+09 SEC/G

 TRANSITION BETWEEN EXCITED STATES   2 AND  4

 STATE MULTIPLICITIES=  1  1
 STATE ENERGIES =         -0.4761099389       -0.2285723050
 TRANSITION ENERGY =  1.6287E+15 [1/SEC] =    54328.23 [1/CM] =        6.74 [EV]
                            X           Y           Z           NORM
 TRANSITION DIPOLE =   -0.000000    0.361985   -0.180503    0.404493 E*BOHR
 TRANSITION DIPOLE =   -0.000000    0.920082   -0.458798    1.028127 DEBYE
 OSCILLATOR STRENGTH =    0.027001
 EINSTEIN COEFFICIENTS: A=  5.3159E+07 1/SEC; B=  6.6402E+07 SEC/G

 TRANSITION BETWEEN EXCITED STATES   2 AND  5

 STATE MULTIPLICITIES=  1  1
 STATE ENERGIES =         -0.4761099389       -0.2285723050
 TRANSITION ENERGY =  1.6287E+15 [1/SEC] =    54328.23 [1/CM] =        6.74 [EV]
                            X           Y           Z           NORM
 TRANSITION DIPOLE =   -0.000000   -0.180503   -0.361985    0.404493 E*BOHR
 TRANSITION DIPOLE =   -0.000000   -0.458798   -0.920082    1.028127 DEBYE
 OSCILLATOR STRENGTH =    0.027001
 EINSTEIN COEFFICIENTS: A=  5.3159E+07 1/SEC; B=  6.6402E+07 SEC/G

 EXPECTATION VALUE DIPOLE MOMENT FOR EXCITED STATE  3

 STATE MULTIPLICITY =   1
 STATE ENERGY =         -0.3294643349
                            X           Y           Z           NORM
      STATE DIPOLE =    0.000000   -0.000000   -0.000000    0.000000 E*BOHR
      STATE DIPOLE =    0.000000   -0.000000   -0.000000    0.000000 DEBYE

 TRANSITION BETWEEN EXCITED STATES   3 AND  4

 STATE MULTIPLICITIES=  1  1
 STATE ENERGIES =         -0.3294643349       -0.2285723050
 TRANSITION ENERGY =  6.6384E+14 [1/SEC] =    22143.24 [1/CM] =        2.75 [EV]
                            X           Y           Z           NORM
 TRANSITION DIPOLE =    0.000000    0.000000   -0.000000    0.000000 E*BOHR
 TRANSITION DIPOLE =    0.000000    0.000000   -0.000000    0.000000 DEBYE
 OSCILLATOR STRENGTH =    0.000000
 EINSTEIN COEFFICIENTS: A=  2.4397E-23 1/SEC; B=  4.5009E-22 SEC/G

 TRANSITION BETWEEN EXCITED STATES   3 AND  5

 STATE MULTIPLICITIES=  1  1
 STATE ENERGIES =         -0.3294643349       -0.2285723050
 TRANSITION ENERGY =  6.6384E+14 [1/SEC] =    22143.24 [1/CM] =        2.75 [EV]
                            X           Y           Z           NORM
 TRANSITION DIPOLE =    0.000000    0.000000   -0.000000    0.000000 E*BOHR
 TRANSITION DIPOLE =    0.000000    0.000000   -0.000000    0.000000 DEBYE
 OSCILLATOR STRENGTH =    0.000000
 EINSTEIN COEFFICIENTS: A=  4.3388E-23 1/SEC; B=  8.0044E-22 SEC/G

 EXPECTATION VALUE DIPOLE MOMENT FOR EXCITED STATE  4

 STATE MULTIPLICITY =   1
 STATE ENERGY =         -0.2285723050
                            X           Y           Z           NORM
      STATE DIPOLE =    0.000000   -0.000000    0.000000    0.000000 E*BOHR
      STATE DIPOLE =    0.000000   -0.000000    0.000000    0.000000 DEBYE

 TRANSITION BETWEEN EXCITED STATES   4 AND  5

 STATE MULTIPLICITIES=  1  1
 STATE ENERGIES =         -0.2285723050       -0.2285723050
 TRANSITION ENERGY =  1.2418E+01 [1/SEC] =        0.00 [1/CM] =        0.00 [EV]
                            X           Y           Z           NORM
 TRANSITION DIPOLE =    0.000000    0.000000    0.000000    0.000000 E*BOHR
 TRANSITION DIPOLE =    0.000000    0.000000    0.000000    0.000000 DEBYE
 OSCILLATOR STRENGTH =    0.000000
 EINSTEIN COEFFICIENTS: A=  1.3984E-64 1/SEC; B=  3.9409E-22 SEC/G

 EXPECTATION VALUE DIPOLE MOMENT FOR EXCITED STATE  5

 STATE MULTIPLICITY =   1
 STATE ENERGY =         -0.2285723050
                            X           Y           Z           NORM
      STATE DIPOLE =    0.000000   -0.000000   -0.000000    0.000000 E*BOHR
      STATE DIPOLE =    0.000000   -0.000000   -0.000000    0.000000 DEBYE

 CIS NATURAL ORBITAL OCCUPATION NUMBERS FOR EXCITED STATE    1 ARE
  1.0000 1.0000 0.0000 0.0000 0.0000 0.0000 0.0000 0.0000 0.0000 0.0000
  0.0000 0.0000 0.0000 0.0000 0.0000 0.0000 0.0000 0.0000 0.0000 0.0000
  0.0000 0.0000 0.0000 0.0000 0.0000 0.0000 0.0000-0.0000
 THERE ARE     1.0000 ELECTRONS IN PRINCIPAL CIS NATURAL ORBITALS.
 THERE ARE     1.0000 ELECTRONS IN SECONDARY CIS NATURAL ORBITALS.

          --------------------
          CIS NATURAL ORBITALS
          --------------------

                      1          2          3          4          5

                    1.0000     1.0000     0.0000     0.0000     0.0000

    1  H  1  S    0.100082  -0.150966  -0.217677   0.014997   0.627108
    2  H  1  S    0.089999  -0.281909  -0.201774   0.230620  -0.512058
    3  H  1  S    1.316217  -0.205975   0.978414  -0.042707   0.903510
    4  H  1  X   -0.009726  -0.005862   0.482314  -0.277278  -0.073994
    5  H  1  Y   -0.000000   0.000000   0.133200   0.000000  -0.283489
    6  H  1  Z   -0.000000   0.000000   0.188679   0.000000   0.157126
    7  H  1  X    0.002154  -0.024438   0.174279  -0.397958   0.582556
    8  H  1  Y   -0.000000   0.000000   0.099177   0.000000  -0.211078
    9  H  1  Z   -0.000000   0.000000   0.140485   0.000000   0.116991
   10  H  1 XX   -0.000199  -0.002454   0.237260  -0.151480   0.296281
   11  H  1 YY    0.000100   0.001227  -0.118630   0.075740  -0.148140
   12  H  1 ZZ    0.000100   0.001227  -0.118630   0.075740  -0.148140
   13  H  1 XY    0.000000   0.000000  -0.058228   0.000000   0.123926
   14  H  1 XZ    0.000000   0.000000  -0.082480   0.000000  -0.068687
   15  H  1 YZ    0.000000   0.000000   0.000000   0.000000   0.000000
   16  H  2  S   -0.100082  -0.150966   0.217677   0.014997  -0.627108
   17  H  2  S   -0.089999  -0.281909   0.201774   0.230620   0.512058
   18  H  2  S   -1.316217  -0.205975  -0.978414  -0.042707  -0.903510
   19  H  2  X   -0.009726   0.005862   0.482314   0.277278  -0.073994
   20  H  2  Y    0.000000   0.000000  -0.133200   0.000000   0.283489
   21  H  2  Z    0.000000   0.000000  -0.188679   0.000000  -0.157126
   22  H  2  X    0.002154   0.024438   0.174279   0.397958   0.582556
   23  H  2  Y    0.000000   0.000000  -0.099177   0.000000   0.211078
   24  H  2  Z    0.000000   0.000000  -0.140485   0.000000  -0.116991
   25  H  2 XX    0.000199  -0.002454  -0.237260  -0.151480  -0.296281
   26  H  2 YY   -0.000100   0.001227   0.118630   0.075740   0.148140
   27  H  2 ZZ   -0.000100   0.001227   0.118630   0.075740   0.148140
   28  H  2 XY    0.000000   0.000000  -0.058228   0.000000   0.123926
   29  H  2 XZ    0.000000   0.000000  -0.082480   0.000000  -0.068687
   30  H  2 YZ    0.000000   0.000000   0.000000   0.000000   0.000000

                      6          7          8          9         10

                    0.0000     0.0000     0.0000     0.0000     0.0000

    1  H  1  S    0.749121   0.000000   0.014096   0.000000   0.000000
    2  H  1  S   -4.253293   0.000000   0.192958   0.000000   0.000000
    3  H  1  S    0.092853   0.000000  -0.177871   0.000000   0.000000
    4  H  1  X    0.072655   0.000000   0.064091   0.000000   0.000000
    5  H  1  Y    0.006700  -0.275810  -0.069867   0.149629   0.007023
    6  H  1  Z   -0.008064   0.071219  -0.270574  -0.007023   0.149629
    7  H  1  X   -3.223969   0.000000  -0.084353   0.000000   0.000000
    8  H  1  Y    0.004988  -0.353974  -0.089667   0.146782   0.006890
    9  H  1  Z   -0.006004   0.091402  -0.347253  -0.006890   0.146782
   10  H  1 XX   -1.049104   0.000000  -0.012772   0.000000   0.000000
   11  H  1 YY    0.524552   0.000000   0.006386   0.000000   0.000000
   12  H  1 ZZ    0.524552   0.000000   0.006386   0.000000   0.000000
   13  H  1 XY   -0.002929  -0.154987  -0.039261  -0.601509  -0.028234
   14  H  1 XZ    0.003525   0.040020  -0.152045   0.028234  -0.601509
   15  H  1 YZ    0.000000   0.000000   0.000000   0.000000   0.000000
   16  H  2  S   -0.749121   0.000000   0.014096   0.000000   0.000000
   17  H  2  S    4.253293   0.000000   0.192958   0.000000   0.000000
   18  H  2  S   -0.092853   0.000000  -0.177871   0.000000   0.000000
   19  H  2  X    0.072655   0.000000  -0.064091   0.000000   0.000000
   20  H  2  Y   -0.006700  -0.275810  -0.069867   0.149629   0.007023
   21  H  2  Z    0.008064   0.071219  -0.270574  -0.007023   0.149629
   22  H  2  X   -3.223969   0.000000   0.084353   0.000000   0.000000
   23  H  2  Y   -0.004988  -0.353974  -0.089667   0.146782   0.006890
   24  H  2  Z    0.006004   0.091402  -0.347253  -0.006890   0.146782
   25  H  2 XX    1.049104   0.000000  -0.012772   0.000000   0.000000
   26  H  2 YY   -0.524552   0.000000   0.006386   0.000000   0.000000
   27  H  2 ZZ   -0.524552   0.000000   0.006386   0.000000   0.000000
   28  H  2 XY   -0.002929   0.154987   0.039261   0.601509   0.028234
   29  H  2 XZ    0.003525  -0.040020   0.152045  -0.028234   0.601509
   30  H  2 YZ    0.000000   0.000000   0.000000   0.000000   0.000000

                     11         12         13         14         15

                    0.0000     0.0000     0.0000     0.0000     0.0000

    1  H  1  S    0.103357   0.230495   0.000000   0.000000   0.000000
    2  H  1  S   -0.001859   0.083143   0.000000   0.000000   0.000000
    3  H  1  S   -0.050696  -0.138876   0.000000   0.000000   0.000000
    4  H  1  X   -0.053982   0.376174   0.000000   0.000000   0.000000
    5  H  1  Y    0.003223  -0.017871   0.000000   0.000000   0.000000
    6  H  1  Z    0.012481  -0.025315   0.000000   0.000000   0.000000
    7  H  1  X   -0.194027   0.091383   0.000000   0.000000   0.000000
    8  H  1  Y    0.004136  -0.013306   0.000000   0.000000   0.000000
    9  H  1  Z    0.016017  -0.018849   0.000000   0.000000   0.000000
   10  H  1 XX    0.603280  -0.459507   0.000000   0.000000   0.000000
   11  H  1 YY   -0.301640   0.229753   0.000000  -0.589949   0.000000
   12  H  1 ZZ   -0.301640   0.229753   0.000000   0.589949   0.000000
   13  H  1 XY    0.001811   0.007812   0.000000   0.000000   0.000000
   14  H  1 XZ    0.007013   0.011066   0.000000   0.000000   0.000000
   15  H  1 YZ    0.000000   0.000000   0.681214   0.000000   0.736196
   16  H  2  S    0.103357  -0.230495   0.000000   0.000000   0.000000
   17  H  2  S   -0.001859  -0.083143   0.000000   0.000000   0.000000
   18  H  2  S   -0.050696   0.138876   0.000000   0.000000   0.000000
   19  H  2  X    0.053982   0.376174   0.000000   0.000000   0.000000
   20  H  2  Y    0.003223   0.017871   0.000000   0.000000   0.000000
   21  H  2  Z    0.012481   0.025315   0.000000   0.000000   0.000000
   22  H  2  X    0.194027   0.091383   0.000000   0.000000   0.000000
   23  H  2  Y    0.004136   0.013306   0.000000   0.000000   0.000000
   24  H  2  Z    0.016017   0.018849   0.000000   0.000000   0.000000
   25  H  2 XX    0.603280   0.459507   0.000000   0.000000   0.000000
   26  H  2 YY   -0.301640  -0.229753   0.000000  -0.589949   0.000000
   27  H  2 ZZ   -0.301640  -0.229753   0.000000   0.589949   0.000000
   28  H  2 XY   -0.001811   0.007812   0.000000   0.000000   0.000000
   29  H  2 XZ   -0.007013   0.011066   0.000000   0.000000   0.000000
   30  H  2 YZ    0.000000   0.000000   0.681214   0.000000  -0.736196

                     16         17         18         19         20

                    0.0000     0.0000     0.0000     0.0000     0.0000

    1  H  1  S    0.000000  -0.608823   0.000000   0.000000   0.000000
    2  H  1  S    0.000000  -0.051830   0.000000   0.000000   0.000000
    3  H  1  S    0.000000   0.474852   0.000000   0.000000   0.000000
    4  H  1  X    0.000000   0.211923   0.000000   0.000000   0.000000
    5  H  1  Y    0.000000  -0.008687   0.300646   0.238836  -0.835147
    6  H  1  Z    0.000000  -0.033643  -0.238836   0.300646   0.050551
    7  H  1  X    0.000000  -0.181519   0.000000   0.000000   0.000000
    8  H  1  Y    0.000000  -0.011149  -0.034344  -0.027283   0.670097
    9  H  1  Z    0.000000  -0.043177   0.027283  -0.034344  -0.040561
   10  H  1 XX    0.000000   0.111940   0.000000   0.000000   0.000000
   11  H  1 YY    0.637564  -0.055970   0.000000   0.000000   0.000000
   12  H  1 ZZ   -0.637564  -0.055970   0.000000   0.000000   0.000000
   13  H  1 XY    0.000000  -0.004882   0.629252   0.499883  -0.044230
   14  H  1 XZ    0.000000  -0.018905  -0.499883   0.629252   0.002677
   15  H  1 YZ    0.000000   0.000000   0.000000   0.000000   0.000000
   16  H  2  S    0.000000  -0.608823   0.000000   0.000000   0.000000
   17  H  2  S    0.000000  -0.051830   0.000000   0.000000   0.000000
   18  H  2  S    0.000000   0.474852   0.000000   0.000000   0.000000
   19  H  2  X    0.000000  -0.211923   0.000000   0.000000   0.000000
   20  H  2  Y    0.000000  -0.008687  -0.300646  -0.238836  -0.835147
   21  H  2  Z    0.000000  -0.033643   0.238836  -0.300646   0.050551
   22  H  2  X    0.000000   0.181519   0.000000   0.000000   0.000000
   23  H  2  Y    0.000000  -0.011149   0.034344   0.027283   0.670097
   24  H  2  Z    0.000000  -0.043177  -0.027283   0.034344  -0.040561
   25  H  2 XX    0.000000   0.111940   0.000000   0.000000   0.000000
   26  H  2 YY   -0.637564  -0.055970   0.000000   0.000000   0.000000
   27  H  2 ZZ    0.637564  -0.055970   0.000000   0.000000   0.000000
   28  H  2 XY    0.000000   0.004882   0.629252   0.499883   0.044230
   29  H  2 XZ    0.000000   0.018905  -0.499883   0.629252  -0.002677
   30  H  2 YZ    0.000000   0.000000   0.000000   0.000000   0.000000

                     21         22         23         24         25

                    0.0000     0.0000     0.0000     0.0000     0.0000

    1  H  1  S    0.000000   0.603568   0.080146   0.449687   0.000000
    2  H  1  S    0.000000  -0.378419  -0.273769  -0.057758   0.000000
    3  H  1  S    0.000000   0.900588   0.722596  -0.036431   0.000000
    4  H  1  X    0.000000  -0.076276  -0.714937   0.902459   0.000000
    5  H  1  Y    0.050551   0.243015   0.141160   0.005603   0.045300
    6  H  1  Z    0.835147  -0.214461   0.199955   0.021699  -0.694798
    7  H  1  X    0.000000   0.683848   0.598745  -0.816171   0.000000
    8  H  1  Y   -0.040561   0.180942   0.105104   0.007191  -0.075982
    9  H  1  Z   -0.670097  -0.159681   0.148881   0.027849   1.165393
   10  H  1 XX    0.000000   0.329242  -0.503452  -0.273093   0.000000
   11  H  1 YY    0.000000  -0.164621   0.251726   0.136546   0.000000
   12  H  1 ZZ    0.000000  -0.164621   0.251726   0.136546   0.000000
   13  H  1 XY    0.002677  -0.106233  -0.061708   0.003149  -0.025791
   14  H  1 XZ    0.044230   0.093751  -0.087409   0.012193   0.395568
   15  H  1 YZ    0.000000   0.000000   0.000000   0.000000   0.000000
   16  H  2  S    0.000000  -0.603568  -0.080146   0.449687   0.000000
   17  H  2  S    0.000000   0.378419   0.273769  -0.057758   0.000000
   18  H  2  S    0.000000  -0.900588  -0.722596  -0.036431   0.000000
   19  H  2  X    0.000000  -0.076276  -0.714937  -0.902459   0.000000
   20  H  2  Y    0.050551  -0.243015  -0.141160   0.005603  -0.045300
   21  H  2  Z    0.835147   0.214461  -0.199955   0.021699   0.694798
   22  H  2  X    0.000000   0.683848   0.598745   0.816171   0.000000
   23  H  2  Y   -0.040561  -0.180942  -0.105104   0.007191   0.075982
   24  H  2  Z   -0.670097   0.159681  -0.148881   0.027849  -1.165393
   25  H  2 XX    0.000000  -0.329242   0.503452  -0.273093   0.000000
   26  H  2 YY    0.000000   0.164621  -0.251726   0.136546   0.000000
   27  H  2 ZZ    0.000000   0.164621  -0.251726   0.136546   0.000000
   28  H  2 XY   -0.002677  -0.106233  -0.061708  -0.003149  -0.025791
   29  H  2 XZ   -0.044230   0.093751  -0.087409  -0.012193   0.395568
   30  H  2 YZ    0.000000   0.000000   0.000000   0.000000   0.000000

                     26         27         28

                    0.0000     0.0000    -0.0000

    1  H  1  S    0.000000  -0.834673   0.275136
    2  H  1  S    0.000000   1.558202   0.243063
    3  H  1  S    0.000000  -0.925382  -1.138559
    4  H  1  X    0.000000   0.167509   0.232549
    5  H  1  Y   -0.694798   0.008574   0.174037
    6  H  1  Z   -0.045300   0.033206   0.246525
    7  H  1  X    0.000000  -0.264974  -0.491488
    8  H  1  Y    1.165393   0.011004   0.129583
    9  H  1  Z    0.075982   0.042617   0.183556
   10  H  1 XX    0.000000  -0.038945   0.242838
   11  H  1 YY    0.000000   0.019472  -0.121419
   12  H  1 ZZ    0.000000   0.019472  -0.121419
   13  H  1 XY    0.395568   0.004818  -0.076080
   14  H  1 XZ    0.025791   0.018660  -0.107768
   15  H  1 YZ    0.000000   0.000000   0.000000
   16  H  2  S    0.000000  -0.834673  -0.275136
   17  H  2  S    0.000000   1.558202  -0.243063
   18  H  2  S    0.000000  -0.925382   1.138559
   19  H  2  X    0.000000  -0.167509   0.232549
   20  H  2  Y    0.694798   0.008574  -0.174037
   21  H  2  Z    0.045300   0.033206  -0.246525
   22  H  2  X    0.000000   0.264974  -0.491488
   23  H  2  Y   -1.165393   0.011004  -0.129583
   24  H  2  Z   -0.075982   0.042617  -0.183556
   25  H  2 XX    0.000000  -0.038945  -0.242838
   26  H  2 YY    0.000000   0.019472   0.121419
   27  H  2 ZZ    0.000000   0.019472   0.121419
   28  H  2 XY    0.395568  -0.004818  -0.076080
   29  H  2 XZ    0.025791  -0.018660  -0.107768
   30  H  2 YZ    0.000000   0.000000   0.000000

 THE CIS NATURAL ORBITALS HAVE BEEN PUNCHED.

 ..... DONE WITH CIS ENERGY .....

 CPU     0: STEP CPU TIME=     0.00 TOTAL CPU TIME=        0.1 (    0.0 MIN)
 TOTAL WALL CLOCK TIME=        0.8 SECONDS, CPU UTILIZATION IS   8.97%

     -------------------------------------------------------------
     CIS   PROPERTIES...FOR THE WAVEFUNCTION OF EXCITED STATE    1
                 USING THE EXPECTATION VALUE DENSITY
     -------------------------------------------------------------

          -----------------
          ENERGY COMPONENTS
          -----------------

         WAVEFUNCTION NORMALIZATION =       1.0000000000

                ONE ELECTRON ENERGY =      -1.5959631617
                TWO ELECTRON ENERGY =       0.4476865705
           NUCLEAR REPULSION ENERGY =       0.4545454545
                                      ------------------
                       TOTAL ENERGY =      -0.6937311366

 ELECTRON-ELECTRON POTENTIAL ENERGY =       0.4476865705
  NUCLEUS-ELECTRON POTENTIAL ENERGY =      -2.3476023686
   NUCLEUS-NUCLEUS POTENTIAL ENERGY =       0.4545454545
                                      ------------------
             TOTAL POTENTIAL ENERGY =      -1.4453703436
               TOTAL KINETIC ENERGY =       0.7516392069
                 VIRIAL RATIO (V/T) =       1.9229576242

          ---------------------------------------
          MULLIKEN AND LOWDIN POPULATION ANALYSES
          ---------------------------------------

               ----- POPULATIONS IN EACH AO -----
                             MULLIKEN      LOWDIN
              1  H  1  S      0.11523     0.09244
              2  H  1  S      0.27394     0.22709
              3  H  1  S      0.60218     0.42969
              4  H  1  X      0.00201     0.00249
              5  H  1  Y      0.00000     0.00000
              6  H  1  Z      0.00000     0.00000
              7  H  1  X      0.00640     0.10440
              8  H  1  Y      0.00000     0.00000
              9  H  1  Z      0.00000     0.00000
             10  H  1 XX      0.00006     0.04738
             11  H  1 YY      0.00017     0.04826
             12  H  1 ZZ      0.00000     0.04826
             13  H  1 XY      0.00000     0.00000
             14  H  1 XZ      0.00000     0.00000
             15  H  1 YZ      0.00000     0.00000
             16  H  2  S      0.11523     0.09244
             17  H  2  S      0.27394     0.22709
             18  H  2  S      0.60218     0.42969
             19  H  2  X      0.00201     0.00249
             20  H  2  Y      0.00000     0.00000
             21  H  2  Z      0.00000     0.00000
             22  H  2  X      0.00640     0.10440
             23  H  2  Y      0.00000     0.00000
             24  H  2  Z      0.00000     0.00000
             25  H  2 XX      0.00006     0.04738
             26  H  2 YY      0.00017     0.04826
             27  H  2 ZZ      0.00000     0.04826
             28  H  2 XY      0.00000     0.00000
             29  H  2 XZ      0.00000     0.00000
             30  H  2 YZ      0.00000     0.00000

          ----- MULLIKEN ATOMIC OVERLAP POPULATIONS -----
          (OFF-DIAGONAL ELEMENTS NEED TO BE MULTIPLIED BY 2)

             1           2

    1    2.3691123
    2   -1.3691123   2.3691123

          TOTAL MULLIKEN AND LOWDIN ATOMIC POPULATIONS
       ATOM         MULL.POP.    CHARGE          LOW.POP.     CHARGE
    1 H             1.000000    0.000000         1.000000   -0.000000
    2 H             1.000000   -0.000000         1.000000   -0.000000

          MULLIKEN SPHERICAL HARMONIC POPULATIONS
       ATOM           S       P       D      F      G      H      I    TOTAL
    1 H             0.99    0.01    0.00   0.00   0.00   0.00   0.00    1.00
    2 H             0.99    0.01    0.00   0.00   0.00   0.00   0.00    1.00

          ---------------------
          ELECTROSTATIC MOMENTS
          ---------------------

 POINT   1           X           Y           Z (BOHR)    CHARGE
                 1.100000    0.000000    0.000000       -0.00 (A.U.)
         DX          DY          DZ         /D/  (DEBYE)
    -0.000000   -0.000000    0.000000    0.000000
 ...... END OF PROPERTY EVALUATION ......
 CPU     0: STEP CPU TIME=     0.02 TOTAL CPU TIME=        0.1 (    0.0 MIN)
 TOTAL WALL CLOCK TIME=        0.8 SECONDS, CPU UTILIZATION IS  10.98%
                580000  WORDS OF DYNAMIC MEMORY USED
 EXECUTION OF GAMESS TERMINATED NORMALLY Wed Apr 12 18:20:46 2017
 DDI: 263640 bytes (0.3 MB / 0 MWords) used by master data server.

 ----------------------------------------
 CPU timing information for all processes
 ========================================
 0: 0.42 + 0.52 = 0.95
 1: 0.21 + 0.26 = 0.47
 2: 0.21 + 0.32 = 0.53
 3: 0.22 + 0.23 = 0.45
 4: 0.25 + 0.35 = 0.61
 5: 0.14 + 0.27 = 0.42
 6: 0.23 + 0.28 = 0.52
 7: 0.19 + 0.21 = 0.41
 8: 0.27 + 0.29 = 0.57
 9: 0.19 + 0.21 = 0.40
 10: 0.17 + 0.29 = 0.46
 11: 0.18 + 0.20 = 0.38
 12: 0.17 + 0.38 = 0.55
 13: 0.18 + 0.23 = 0.42
 14: 0.22 + 0.26 = 0.48
 15: 0.13 + 0.22 = 0.35
 ----------------------------------------
 ddikick.x: exited gracefully.
----- accounting info -----
Files used on the master node kylin.physics.illinois.edu were:
-rw-rw-r--. 1 yyang173 yyang173     331 Apr 12 18:20 /scr/yyang173/sep2.20-cis.F05
-rw-rw-r--. 1 yyang173 yyang173  180016 Apr 12 18:20 /scr/yyang173/sep2.20-cis.F08
-rw-rw-r--. 1 yyang173 yyang173  180016 Apr 12 18:20 /scr/yyang173/sep2.20-cis.F08.001
-rw-rw-r--. 1 yyang173 yyang173  180016 Apr 12 18:20 /scr/yyang173/sep2.20-cis.F08.002
-rw-rw-r--. 1 yyang173 yyang173  180016 Apr 12 18:20 /scr/yyang173/sep2.20-cis.F08.003
-rw-rw-r--. 1 yyang173 yyang173  180016 Apr 12 18:20 /scr/yyang173/sep2.20-cis.F08.004
-rw-rw-r--. 1 yyang173 yyang173  180016 Apr 12 18:20 /scr/yyang173/sep2.20-cis.F08.005
-rw-rw-r--. 1 yyang173 yyang173  180016 Apr 12 18:20 /scr/yyang173/sep2.20-cis.F08.006
-rw-rw-r--. 1 yyang173 yyang173  180016 Apr 12 18:20 /scr/yyang173/sep2.20-cis.F08.007
-rw-rw-r--. 1 yyang173 yyang173  180016 Apr 12 18:20 /scr/yyang173/sep2.20-cis.F08.008
-rw-rw-r--. 1 yyang173 yyang173  180016 Apr 12 18:20 /scr/yyang173/sep2.20-cis.F08.009
-rw-rw-r--. 1 yyang173 yyang173  180016 Apr 12 18:20 /scr/yyang173/sep2.20-cis.F08.010
-rw-rw-r--. 1 yyang173 yyang173  180016 Apr 12 18:20 /scr/yyang173/sep2.20-cis.F08.011
-rw-rw-r--. 1 yyang173 yyang173  180016 Apr 12 18:20 /scr/yyang173/sep2.20-cis.F08.012
-rw-rw-r--. 1 yyang173 yyang173  180016 Apr 12 18:20 /scr/yyang173/sep2.20-cis.F08.013
-rw-rw-r--. 1 yyang173 yyang173  180016 Apr 12 18:20 /scr/yyang173/sep2.20-cis.F08.014
-rw-rw-r--. 1 yyang173 yyang173  180016 Apr 12 18:20 /scr/yyang173/sep2.20-cis.F08.015
-rw-rw-r--. 1 yyang173 yyang173 1636000 Apr 12 18:20 /scr/yyang173/sep2.20-cis.F10
-rw-rw-r--. 1 yyang173 yyang173    1120 Apr 12 18:20 /scr/yyang173/sep2.20-cis.F12
Wed Apr 12 18:20:49 CDT 2017
0.244u 0.103s 0:04.74 7.1%	0+0k 0+16io 0pf+0w
