----- GAMESS execution script 'rungms' -----
This job is running on host kylin.physics.illinois.edu
under operating system Linux at Wed Apr 12 18:21:07 CDT 2017
Available scratch disk space (Kbyte units) at beginning of the job is
Filesystem                    1K-blocks     Used Available Use% Mounted on
/dev/mapper/fedora_kylin-root 110123880 60480280  44601484  58% /
GAMESS temporary binary files will be written to /scr/yyang173
GAMESS supplementary output files will be written to /home/yyang173/Desktop/attempts/drag-node/hf_grid/cis/sep2.70
Copying input file sep2.70-cis.inp to your run's scratch directory...
 
Assuming a single but multicore node.
 

 Distributed Data Interface kickoff program.
 Initiating 16 compute processes on 1 nodes to run the following command:
 /opt/intel17/apps/gamess_2016R1/gamess.00.x sep2.70-cis 

          ******************************************************
          *         GAMESS VERSION = 18 AUG 2016 (R1)          *
          *             FROM IOWA STATE UNIVERSITY             *
          * M.W.SCHMIDT, K.K.BALDRIDGE, J.A.BOATZ, S.T.ELBERT, *
          *   M.S.GORDON, J.H.JENSEN, S.KOSEKI, N.MATSUNAGA,   *
          *          K.A.NGUYEN, S.J.SU, T.L.WINDUS,           *
          *       TOGETHER WITH M.DUPUIS, J.A.MONTGOMERY       *
          *         J.COMPUT.CHEM.  14, 1347-1363(1993)        *
          **************** 64 BIT INTEL VERSION ****************

  SINCE 1993, STUDENTS AND POSTDOCS WORKING AT IOWA STATE UNIVERSITY
  AND ALSO IN THEIR VARIOUS JOBS AFTER LEAVING ISU HAVE MADE IMPORTANT
  CONTRIBUTIONS TO THE CODE:
     IVANA ADAMOVIC, CHRISTINE AIKENS, YURI ALEXEEV, POOJA ARORA,
     ANDREY ASADCHEV, ROB BELL, PRADIPTA BANDYOPADHYAY, JONATHAN BENTZ,
     BRETT BODE, KURT BRORSEN, CALEB CARLIN, GALINA CHABAN, WEI CHEN,
     CHEOL HO CHOI, PAUL DAY, ALBERT DEFUSCO, NUWAN DESILVA, TIM DUDLEY,
     DMITRI FEDOROV, GRAHAM FLETCHER, MARK FREITAG, KURT GLAESEMANN,
     DAN KEMP, GRANT MERRILL, NORIYUKI MINEZAWA, JONATHAN MULLIN,
     TAKESHI NAGATA, SEAN NEDD, HEATHER NETZLOFF, BOSILJKA NJEGIC, RYAN OLSON,
     MIKE PAK, SPENCER PRUITT, LUKE ROSKOP, JIM SHOEMAKER, LYUDMILA SLIPCHENKO,
     TONY SMITH, SAROM SOK LEANG, JIE SONG, TETSUYA TAKETSUGU, SIMON WEBB,
     PENG XU, SOOHAENG YOO, FEDERICO ZAHARIEV

  ADDITIONAL CODE HAS BEEN PROVIDED BY COLLABORATORS IN OTHER GROUPS:
     IOWA STATE UNIVERSITY:
          JOE IVANIC, AARON WEST, LAIMUTIS BYTAUTAS, KLAUS RUEDENBERG
     UNIVERSITY OF TOKYO: KIMIHIKO HIRAO, TAKAHITO NAKAJIMA,
          TAKAO TSUNEDA, MUNEAKI KAMIYA, SUSUMU YANAGISAWA,
          KIYOSHI YAGI, MAHITO CHIBA, SEIKEN TOKURA, NAOAKI KAWAKAMI
     UNIVERSITY OF AARHUS: FRANK JENSEN
     UNIVERSITY OF IOWA: VISVALDAS KAIRYS, HUI LI
     NATIONAL INST. OF STANDARDS AND TECHNOLOGY: WALT STEVENS, DAVID GARMER
     UNIVERSITY OF PISA: BENEDETTA MENNUCCI, JACOPO TOMASI
     UNIVERSITY OF MEMPHIS: HENRY KURTZ, PRAKASHAN KORAMBATH
     UNIVERSITY OF ALBERTA: TOBY ZENG, MARIUSZ KLOBUKOWSKI
     UNIVERSITY OF NEW ENGLAND: MARK SPACKMAN
     MIE UNIVERSITY: HIROAKI UMEDA
     NAT. INST. OF ADVANCED INDUSTRIAL SCIENCE AND TECHNOLOGY: KAZUO KITAURA
     MICHIGAN STATE UNIVERSITY:
          KAROL KOWALSKI, MARTA WLOCH, JEFFREY GOUR, JESSE LUTZ,
          WEI LI, PIOTR PIECUCH
     UNIVERSITY OF SILESIA: MONIKA MUSIAL, STANISLAW KUCHARSKI
     FACULTES UNIVERSITAIRES NOTRE-DAME DE LA PAIX:
          OLIVIER QUINET, BENOIT CHAMPAGNE
     UNIVERSITY OF CALIFORNIA - SANTA BARBARA: BERNARD KIRTMAN
     INSTITUTE FOR MOLECULAR SCIENCE:
          KAZUYA ISHIMURA, MICHIO KATOUDA, AND SHIGERU NAGASE
     UNIVERSITY OF NOTRE DAME: ANNA POMOGAEVA, DAN CHIPMAN
     KYUSHU UNIVERSITY:
          HARUYUKI NAKANO,
          FENG LONG GU, JACEK KORCHOWIEC, MARCIN MAKOWSKI, AND YURIKO AOKI,
          HIROTOSHI MORI AND EISAKU MIYOSHI
     PENNSYLVANIA STATE UNIVERSITY:
          TZVETELIN IORDANOV, CHET SWALINA, JONATHAN SKONE,
          SHARON HAMMES-SCHIFFER
     WASEDA UNIVERSITY:
          MASATO KOBAYASHI, TOMOKO AKAMA, TSUGUKI TOUMA,
          TAKESHI YOSHIKAWA, YASUHIRO IKABATA, JUNJI SEINO,
          YUYA NAKAJIMA, HIROMI NAKAI
     NANJING UNIVERSITY: SHUHUA LI
     UNIVERSITY OF NEBRASKA:
          PEIFENG SU, DEJUN SI, NANDUN THELLAMUREGE, YALI WANG, HUI LI
     UNIVERSITY OF ZURICH: ROBERTO PEVERATI, KIM BALDRIDGE
     N. COPERNICUS UNIVERSITY AND JACKSON STATE UNIVERSITY:
          MARIA BARYSZ
     UNIVERSITY OF COPENHAGEN: Jimmy Kromann, CASPER STEINMANN
     TOKYO INSTITUTE OF TECHNOLOGY: HIROYA NAKATA
     NAGOYA UNIVERSITY: YOSHIO NISHIMOTO, STEPHAN IRLE
     MOSCOW STATE UNIVERSITY: VLADIMIR MIRONOV


 PARALLEL VERSION RUNNING ON       16 PROCESSORS IN        1 NODES.

 EXECUTION OF GAMESS BEGUN Wed Apr 12 18:21:07 2017

            ECHO OF THE FIRST FEW INPUT CARDS -
 INPUT CARD> $contrl coord=unique icharg=0 ispher=1 mult=1 runtyp=energy                    
 INPUT CARD>         scftyp=rhf cityp=cis units=bohr  $end                                  
 INPUT CARD> $basis  gbasis=cct  $end                                                       
 INPUT CARD> $guess  guess=huckel  $end                                                     
 INPUT CARD> $cis    nstate=5 $end                                                          
 INPUT CARD> $DATA                                                                          
 INPUT CARD>A molecule.                                                                     
 INPUT CARD>C1                                                                              
 INPUT CARD>H 1.00       0.00000000       0.00000000       0.00000000                       
 INPUT CARD>H 1.00       2.700000000       0.00000000       0.00000000                      
 INPUT CARD> $END                                                                           
    1000000 WORDS OF MEMORY AVAILABLE

     BASIS OPTIONS
     -------------
     GBASIS=CCT          IGAUSS=       0      POLAR=NONE    
     NDFUNC=       0     NFFUNC=       0     DIFFSP=       F
     NPFUNC=       0      DIFFS=       F     BASNAM=        


     RUN TITLE
     ---------
 A molecule.                                                                     

 THE POINT GROUP OF THE MOLECULE IS C1      
 THE ORDER OF THE PRINCIPAL AXIS IS     0

 ATOM      ATOMIC                      COORDINATES (BOHR)
           CHARGE         X                   Y                   Z
 H           1.0     0.0000000000        0.0000000000        0.0000000000
 H           1.0     2.7000000000        0.0000000000        0.0000000000

          INTERNUCLEAR DISTANCES (ANGS.)
          ------------------------------

                1 H          2 H     

   1 H       0.0000000    1.4287786 *
   2 H       1.4287786 *  0.0000000  

  * ... LESS THAN  3.000


     ATOMIC BASIS SET
     ----------------
 THE CONTRACTED PRIMITIVE FUNCTIONS HAVE BEEN UNNORMALIZED
 THE CONTRACTED BASIS FUNCTIONS ARE NOW NORMALIZED TO UNITY

  SHELL TYPE  PRIMITIVE        EXPONENT          CONTRACTION COEFFICIENT(S)

 H         

      1   S       1            33.8700000    0.025494863235
      1   S       2             5.0950000    0.190362765893
      1   S       3             1.1590000    0.852162022245

      2   S       4             0.3258000    1.000000000000

      3   S       5             0.1027000    1.000000000000

      4   P       6             1.4070000    1.000000000000

      5   P       7             0.3880000    1.000000000000

      6   D       8             1.0570000    1.000000000000

 H         

      7   S       9            33.8700000    0.025494863235
      7   S      10             5.0950000    0.190362765893
      7   S      11             1.1590000    0.852162022245

      8   S      12             0.3258000    1.000000000000

      9   S      13             0.1027000    1.000000000000

     10   P      14             1.4070000    1.000000000000

     11   P      15             0.3880000    1.000000000000

     12   D      16             1.0570000    1.000000000000

 TOTAL NUMBER OF BASIS SET SHELLS             =   12
 NUMBER OF CARTESIAN GAUSSIAN BASIS FUNCTIONS =   30
 NOTE: THIS RUN WILL RESTRICT THE MO VARIATION SPACE TO SPHERICAL HARMONICS.
 THE NUMBER OF ORBITALS KEPT IN THE VARIATIONAL SPACE WILL BE PRINTED LATER.
 NUMBER OF ELECTRONS                          =    2
 CHARGE OF MOLECULE                           =    0
 SPIN MULTIPLICITY                            =    1
 NUMBER OF OCCUPIED ORBITALS (ALPHA)          =    1
 NUMBER OF OCCUPIED ORBITALS (BETA )          =    1
 TOTAL NUMBER OF ATOMS                        =    2
 THE NUCLEAR REPULSION ENERGY IS        0.3703703704

 THIS MOLECULE IS RECOGNIZED AS BEING LINEAR,
 ORBITAL LZ DEGENERACY TOLERANCE ETOLLZ= 1.00E-06

     $CONTRL OPTIONS
     ---------------
 SCFTYP=RHF          RUNTYP=ENERGY       EXETYP=RUN     
 MPLEVL=       0     CITYP =CIS          CCTYP =NONE         VBTYP =NONE    
 DFTTYP=NONE         TDDFT =NONE    
 MULT  =       1     ICHARG=       0     NZVAR =       0     COORD =UNIQUE  
 PP    =NONE         RELWFN=NONE         LOCAL =NONE         NUMGRD=       F
 ISPHER=       1     NOSYM =       0     MAXIT =      30     UNITS =BOHR    
 PLTORB=       F     MOLPLT=       F     AIMPAC=       F     FRIEND=        
 NPRINT=       7     IREST =       0     GEOM  =INPUT   
 NORMF =       0     NORMP =       0     ITOL  =      20     ICUT  =       9
 INTTYP=BEST         GRDTYP=BEST         QMTTOL= 1.0E-06

     $SYSTEM OPTIONS
     ---------------
  REPLICATED MEMORY=     1000000 WORDS (ON EVERY NODE).
 DISTRIBUTED MEMDDI=           0 MILLION WORDS IN AGGREGATE,
 MEMDDI DISTRIBUTED OVER  16 PROCESSORS IS           0 WORDS/PROCESSOR.
 TOTAL MEMORY REQUESTED ON EACH PROCESSOR=     1000000 WORDS.
 TIMLIM=      525600.00 MINUTES, OR     365.0 DAYS.
 PARALL= T  BALTYP=  DLB     KDIAG=    0  COREFL= F
 MXSEQ2=     300 MXSEQ3=     150  mem10=         0

          ----------------
          PROPERTIES INPUT
          ----------------

     MOMENTS            FIELD           POTENTIAL          DENSITY
 IEMOM =       1   IEFLD =       0   IEPOT =       0   IEDEN =       0
 WHERE =COMASS     WHERE =NUCLEI     WHERE =NUCLEI     WHERE =NUCLEI  
 OUTPUT=BOTH       OUTPUT=BOTH       OUTPUT=BOTH       OUTPUT=BOTH    
 IEMINT=       0   IEFINT=       0                     IEDINT=       0
                                                       MORB  =       0
          EXTRAPOLATION IN EFFECT
          SOSCF IN EFFECT
 ORBITAL PRINTING OPTION: NPREO=     1    30     2     1

     -------------------------------
     INTEGRAL TRANSFORMATION OPTIONS
     -------------------------------
     NWORD  =            0
     CUTOFF = 1.0E-09     MPTRAN =       0
     DIRTRF =       F     AOINTS =DUP     

          ----------------------
          INTEGRAL INPUT OPTIONS
          ----------------------
 NOPK  =       1 NORDER=       0 SCHWRZ=       F

     ------------------------------
     CI-SINGLES CONTROL INFORMATION
     ------------------------------
     NACORE =        0  NBCORE   =        0
     NSTATE =        5  IROOT    =        1
     HAMTYP = SAPS      SAP MULT =        1
     DIAGZN = DAVID     MXVEC    =       40
     NDAVIT =       50  DAVCVG   = 1.00E-05
     CISPRP =        F  NGSVEC   =       10
     MNMEDG =        F  MNMEOP   =        F
     CHFSLV = CONJG     RDCISV   =        F
     DGAPRX =        T

     NUMBER OF CORE -A-  ORBITALS =     0
     NUMBER OF CORE -B-  ORBITALS =     0
     NUMBER OF OCC. -A-  ORBITALS =     1
     NUMBER OF OCC. -B-  ORBITALS =     1
     NUMBER OF MOLECULAR ORBITALS =    30
     NUMBER OF   BASIS  FUNCTIONS =    30


     ------------------------------------------
     THE POINT GROUP IS C1 , NAXIS= 0, ORDER= 1
     ------------------------------------------

 -- VARIATIONAL SPACE WILL BE RESTRICTED TO PURE SPHERICAL HARMONICS ONLY --
 AFTER EXCLUDING CONTAMINANT COMBINATIONS FROM THE CARTESIAN GAUSSIAN BASIS
 SET, THE NUMBER OF SPHERICAL HARMONICS KEPT IN THE VARIATION SPACE IS   28

     DIMENSIONS OF THE SYMMETRY SUBSPACES ARE
 A   =   28

 ..... DONE SETTING UP THE RUN .....
 CPU     0: STEP CPU TIME=     0.02 TOTAL CPU TIME=        0.0 (    0.0 MIN)
 TOTAL WALL CLOCK TIME=        0.0 SECONDS, CPU UTILIZATION IS  50.00%

          ********************
          1 ELECTRON INTEGRALS
          ********************
 ...... END OF ONE-ELECTRON INTEGRALS ......
 CPU     0: STEP CPU TIME=     0.01 TOTAL CPU TIME=        0.0 (    0.0 MIN)
 TOTAL WALL CLOCK TIME=        0.1 SECONDS, CPU UTILIZATION IS  23.08%

          -------------
          GUESS OPTIONS
          -------------
          GUESS =HUCKEL            NORB  =       0          NORDER=       0
          MIX   =       F          PRTMO =       F          PUNMO =       F
          TOLZ  = 1.0E-08          TOLE  = 1.0E-05
          SYMDEN=       F          PURIFY=       F

 INITIAL GUESS ORBITALS GENERATED BY HUCKEL   ROUTINE.
 HUCKEL GUESS REQUIRES      8082 WORDS.

 STATISTICS FOR GENERATION OF SYMMETRY ORBITAL -Q- MATRIX
 NUMBER OF CARTESIAN ATOMIC ORBITALS=         30
 NUMBER OF SPHERICAL CONTAMINANTS DROPPED=     2
 NUMBER OF LINEARLY DEPENDENT MOS DROPPED=     0
 TOTAL NUMBER OF MOS IN VARIATION SPACE=      28

 SYMMETRIES FOR INITIAL GUESS ORBITALS FOLLOW.   BOTH SET(S).
     1 ORBITALS ARE OCCUPIED (    0 CORE ORBITALS).
     1=A        2=A        3=A        4=A        5=A        6=A        7=A   
     8=A        9=A       10=A       11=A   
 ...... END OF INITIAL ORBITAL SELECTION ......
 CPU     0: STEP CPU TIME=     0.00 TOTAL CPU TIME=        0.0 (    0.0 MIN)
 TOTAL WALL CLOCK TIME=        0.2 SECONDS, CPU UTILIZATION IS  16.67%

                    ----------------------
                    AO INTEGRAL TECHNOLOGY
                    ----------------------
     S,P,L SHELL ROTATED AXIS INTEGRALS, REPROGRAMMED BY
        KAZUYA ISHIMURA (IMS) AND JOSE SIERRA (SYNSTAR).
     S,P,D,L SHELL ROTATED AXIS INTEGRALS PROGRAMMED BY
        KAZUYA ISHIMURA (INSTITUTE FOR MOLECULAR SCIENCE).
     S,P,D,F,G SHELL TO TOTAL QUARTET ANGULAR MOMENTUM SUM 5,
        ERIC PROGRAM BY GRAHAM FLETCHER (ELORET AND NASA ADVANCED
        SUPERCOMPUTING DIVISION, AMES RESEARCH CENTER).
     S,P,D,F,G,L SHELL GENERAL RYS QUADRATURE PROGRAMMED BY
        MICHEL DUPUIS (PACIFIC NORTHWEST NATIONAL LABORATORY).

          --------------------
          2 ELECTRON INTEGRALS
          --------------------

 THE -PK- OPTION IS OFF, THE INTEGRALS ARE NOT IN SUPERMATRIX FORM.
 STORING   15000 INTEGRALS/RECORD ON DISK, USING 12 BYTES/INTEGRAL.
 TWO ELECTRON INTEGRAL EVALUATION REQUIRES   90474 WORDS OF MEMORY.
 II,JST,KST,LST =  1  1  1  1 NREC =         1 INTLOC =    1
 II,JST,KST,LST =  2  1  1  1 NREC =         1 INTLOC =    1
 II,JST,KST,LST =  3  1  1  1 NREC =         1 INTLOC =    5
 II,JST,KST,LST =  4  1  1  1 NREC =         1 INTLOC =    5
 II,JST,KST,LST =  5  1  1  1 NREC =         1 INTLOC =   50
 II,JST,KST,LST =  6  1  1  1 NREC =         1 INTLOC =   50
 II,JST,KST,LST =  7  1  1  1 NREC =         1 INTLOC =   86
 II,JST,KST,LST =  8  1  1  1 NREC =         1 INTLOC =  338
 II,JST,KST,LST =  9  1  1  1 NREC =         1 INTLOC =  487
 II,JST,KST,LST = 10  1  1  1 NREC =         1 INTLOC =  487
 II,JST,KST,LST = 11  1  1  1 NREC =         1 INTLOC = 1595
 II,JST,KST,LST = 12  1  1  1 NREC =         1 INTLOC = 1595
 TOTAL NUMBER OF NONZERO TWO-ELECTRON INTEGRALS =               28697
         16 INTEGRAL RECORDS WERE STORED ON DISK FILE  8.
  ...... END OF TWO-ELECTRON INTEGRALS .....
 CPU     0: STEP CPU TIME=     0.01 TOTAL CPU TIME=        0.0 (    0.0 MIN)
 TOTAL WALL CLOCK TIME=        0.2 SECONDS, CPU UTILIZATION IS  17.39%

          --------------------------
                 RHF SCF CALCULATION
          --------------------------

     NUCLEAR ENERGY =         0.3703703704
     MAXIT =   30     NPUNCH=    2
     EXTRAP=T  DAMP=F  SHIFT=F  RSTRCT=F  DIIS=F  DEM=F  SOSCF=T
     DENSITY MATRIX CONV=  1.00E-06
     SOSCF WILL OPTIMIZE      27 ORBITAL ROTATIONS, SOGTOL=   0.250
     MEMORY REQUIRED FOR RHF ITERS=     36828 WORDS.

 ITER EX DEM     TOTAL ENERGY        E CHANGE  DENSITY CHANGE     ORB. GRAD
   1  0  0       -0.9322572984    -0.9322572984   0.105043422   0.000000000
          ---------------START SECOND ORDER SCF---------------
   2  1  0       -1.0140161123    -0.0817588139   0.038062105   0.028167999
   3  2  0       -1.0174857048    -0.0034695925   0.010205330   0.005543484
   4  3  0       -1.0176296291    -0.0001439242   0.000058706   0.000254103
   5  4  0       -1.0176297793    -0.0000001502   0.000013423   0.000038371
   6  5  0       -1.0176297834    -0.0000000042   0.000000966   0.000001662
   7  6  0       -1.0176297834    -0.0000000000   0.000000199   0.000000278

          -----------------
          DENSITY CONVERGED
          -----------------
     TIME TO FORM FOCK OPERATORS=       0.0 SECONDS (       0.0 SEC/ITER)
     TIME TO SOLVE SCF EQUATIONS=       0.0 SECONDS (       0.0 SEC/ITER)

 FINAL RHF ENERGY IS       -1.0176297834 AFTER   7 ITERATIONS

 LZ VALUE ANALYSIS FOR THE MOS
 ----------------------------------------
 MO     1 (    1) HAS LZ(WEIGHT)= 0.00(100.0%) 
 MO     2 (    2) HAS LZ(WEIGHT)= 0.00(100.0%) 
 MO     3 (    3) HAS LZ(WEIGHT)= 0.00(100.0%) 
 MO     4 (    4) HAS LZ(WEIGHT)= 0.00(100.0%) 
 MO     5 (    5) HAS LZ(WEIGHT)= 0.00(100.0%) 
 MO     6 (    5) HAS LZ(WEIGHT)= 0.00(100.0%) 
 MO     7 (    6) HAS LZ(WEIGHT)= 0.00(100.0%) 
 MO     8 (    7) HAS LZ(WEIGHT)= 0.00(100.0%) 
 MO     9 (    7) HAS LZ(WEIGHT)= 0.00(100.0%) 
 MO    10 (    8) HAS LZ(WEIGHT)= 0.00(100.0%) 
 MO    11 (    9) HAS LZ(WEIGHT)= 0.00(100.0%) 
 MO    12 (   10) HAS LZ(WEIGHT)= 0.00(100.0%) 
 MO    13 (   11) HAS LZ(WEIGHT)= 0.00(100.0%) 
 MO    14 (   12) HAS LZ(WEIGHT)= 0.00(100.0%) 
 MO    15 (   12) HAS LZ(WEIGHT)= 0.00(100.0%) 
 MO    16 (   13) HAS LZ(WEIGHT)= 0.00(100.0%) 
 MO    17 (   13) HAS LZ(WEIGHT)= 0.00(100.0%) 
 MO    18 (   14) HAS LZ(WEIGHT)= 0.00(100.0%) 
 MO    19 (   14) HAS LZ(WEIGHT)= 0.00(100.0%) 
 MO    20 (   15) HAS LZ(WEIGHT)= 0.00(100.0%) 
 MO    21 (   15) HAS LZ(WEIGHT)= 0.00(100.0%) 
 MO    22 (   16) HAS LZ(WEIGHT)= 0.00(100.0%) 
 MO    23 (   16) HAS LZ(WEIGHT)= 0.00(100.0%) 
 MO    24 (   17) HAS LZ(WEIGHT)= 0.00(100.0%) 
 MO    25 (   18) HAS LZ(WEIGHT)= 0.00(100.0%) 
 MO    26 (   18) HAS LZ(WEIGHT)= 0.00(100.0%) 
 MO    27 (   19) HAS LZ(WEIGHT)= 0.00(100.0%) 
 MO    28 (   20) HAS LZ(WEIGHT)= 0.00(100.0%) 

          ------------
          EIGENVECTORS
          ------------

                      1          2          3          4          5
                   -0.4501     0.0446     0.3623     0.4532     0.6661
                     A          A          A          A          A   
    1  H  1  S    0.141122   0.132970   0.047841  -0.104487   0.000000
    2  H  1  S    0.272274   0.158623   0.925032  -1.009451   0.000000
    3  H  1  S    0.246629   0.949471  -0.921010   1.661092   0.000000
    4  H  1  X    0.002503  -0.007994  -0.003547  -0.016150   0.000000
    5  H  1  Y    0.000000   0.000000   0.000000   0.000000  -0.048548
    6  H  1  Z    0.000000   0.000000   0.000000   0.000000  -0.039837
    7  H  1  X    0.026280  -0.008671   0.086390   0.168426   0.000000
    8  H  1  Y    0.000000   0.000000   0.000000   0.000000   0.515721
    9  H  1  Z    0.000000   0.000000   0.000000   0.000000   0.423183
   10  H  1 XX    0.001983   0.000156  -0.008476   0.010436   0.000000
   11  H  1 YY   -0.000991  -0.000078   0.004238  -0.005218   0.000000
   12  H  1 ZZ   -0.000991  -0.000078   0.004238  -0.005218   0.000000
   13  H  1 XY    0.000000   0.000000   0.000000   0.000000  -0.000327
   14  H  1 XZ    0.000000   0.000000   0.000000   0.000000  -0.000269
   15  H  1 YZ    0.000000   0.000000   0.000000   0.000000   0.000000
   16  H  2  S    0.141122  -0.132970   0.047841   0.104487   0.000000
   17  H  2  S    0.272274  -0.158623   0.925032   1.009451   0.000000
   18  H  2  S    0.246629  -0.949471  -0.921010  -1.661092   0.000000
   19  H  2  X   -0.002503  -0.007994   0.003547  -0.016150   0.000000
   20  H  2  Y    0.000000   0.000000   0.000000   0.000000  -0.048548
   21  H  2  Z    0.000000   0.000000   0.000000   0.000000  -0.039837
   22  H  2  X   -0.026280  -0.008671  -0.086390   0.168426   0.000000
   23  H  2  Y    0.000000   0.000000   0.000000   0.000000   0.515721
   24  H  2  Z    0.000000   0.000000   0.000000   0.000000   0.423183
   25  H  2 XX    0.001983  -0.000156  -0.008476  -0.010436   0.000000
   26  H  2 YY   -0.000991   0.000078   0.004238   0.005218   0.000000
   27  H  2 ZZ   -0.000991   0.000078   0.004238   0.005218   0.000000
   28  H  2 XY    0.000000   0.000000   0.000000   0.000000   0.000327
   29  H  2 XZ    0.000000   0.000000   0.000000   0.000000   0.000269
   30  H  2 YZ    0.000000   0.000000   0.000000   0.000000   0.000000

                      6          7          8          9         10
                    0.6661     0.8384     0.9541     0.9541     1.3547
                     A          A          A          A          A   
    1  H  1  S    0.000000   0.003875   0.000000   0.000000   0.100523
    2  H  1  S    0.000000   0.467655   0.000000   0.000000   0.440639
    3  H  1  S    0.000000  -0.248667   0.000000   0.000000   0.738727
    4  H  1  X    0.000000   0.050859   0.000000   0.000000  -0.122838
    5  H  1  Y    0.039837   0.000000   0.031876   0.069645   0.000000
    6  H  1  Z   -0.048548   0.000000  -0.069645   0.031876   0.000000
    7  H  1  X    0.000000  -0.650523   0.000000   0.000000   1.495094
    8  H  1  Y   -0.423183   0.000000  -0.358880  -0.784109   0.000000
    9  H  1  Z    0.515721   0.000000   0.784109  -0.358880   0.000000
   10  H  1 XX    0.000000   0.034065   0.000000   0.000000   0.014700
   11  H  1 YY    0.000000  -0.017033   0.000000   0.000000  -0.007350
   12  H  1 ZZ    0.000000  -0.017033   0.000000   0.000000  -0.007350
   13  H  1 XY    0.000269   0.000000   0.006241   0.013636   0.000000
   14  H  1 XZ   -0.000327   0.000000  -0.013636   0.006241   0.000000
   15  H  1 YZ    0.000000   0.000000   0.000000   0.000000   0.000000
   16  H  2  S    0.000000   0.003875   0.000000   0.000000  -0.100523
   17  H  2  S    0.000000   0.467655   0.000000   0.000000  -0.440639
   18  H  2  S    0.000000  -0.248667   0.000000   0.000000  -0.738727
   19  H  2  X    0.000000  -0.050859   0.000000   0.000000  -0.122838
   20  H  2  Y    0.039837   0.000000  -0.031876  -0.069645   0.000000
   21  H  2  Z   -0.048548   0.000000   0.069645  -0.031876   0.000000
   22  H  2  X    0.000000   0.650523   0.000000   0.000000   1.495094
   23  H  2  Y   -0.423183   0.000000   0.358880   0.784109   0.000000
   24  H  2  Z    0.515721   0.000000  -0.784109   0.358880   0.000000
   25  H  2 XX    0.000000   0.034065   0.000000   0.000000  -0.014700
   26  H  2 YY    0.000000  -0.017033   0.000000   0.000000   0.007350
   27  H  2 ZZ    0.000000  -0.017033   0.000000   0.000000   0.007350
   28  H  2 XY   -0.000269   0.000000   0.006241   0.013636   0.000000
   29  H  2 XZ    0.000327   0.000000  -0.013636   0.006241   0.000000
   30  H  2 YZ    0.000000   0.000000   0.000000   0.000000   0.000000

                     11         12         13         14         15
                    2.5442     2.6877     3.1151     3.1272     3.1272
                     A          A          A          A          A   
    1  H  1  S   -1.086211  -1.101517   0.044156   0.000000   0.000000
    2  H  1  S    1.242621   1.594054  -0.130264   0.000000   0.000000
    3  H  1  S   -0.479619  -0.663138   0.088811   0.000000   0.000000
    4  H  1  X    0.063243  -0.016318   0.364133   0.000000   0.000000
    5  H  1  Y    0.000000   0.000000   0.000000  -0.000854   0.003727
    6  H  1  Z    0.000000   0.000000   0.000000   0.003727   0.000854
    7  H  1  X   -0.099212   0.368864  -0.228228   0.000000   0.000000
    8  H  1  Y    0.000000   0.000000   0.000000  -0.016605   0.072478
    9  H  1  Z    0.000000   0.000000   0.000000   0.072478   0.016605
   10  H  1 XX   -0.029095  -0.117160   0.580968   0.000000   0.000000
   11  H  1 YY    0.014548   0.058580  -0.290484   0.000000   0.000000
   12  H  1 ZZ    0.014548   0.058580  -0.290484   0.000000   0.000000
   13  H  1 XY    0.000000   0.000000   0.000000   0.148737  -0.649205
   14  H  1 XZ    0.000000   0.000000   0.000000  -0.649205  -0.148737
   15  H  1 YZ    0.000000   0.000000   0.000000   0.000000   0.000000
   16  H  2  S   -1.086211   1.101517   0.044156   0.000000   0.000000
   17  H  2  S    1.242621  -1.594054  -0.130264   0.000000   0.000000
   18  H  2  S   -0.479619   0.663138   0.088811   0.000000   0.000000
   19  H  2  X   -0.063243  -0.016318  -0.364133   0.000000   0.000000
   20  H  2  Y    0.000000   0.000000   0.000000  -0.000854   0.003727
   21  H  2  Z    0.000000   0.000000   0.000000   0.003727   0.000854
   22  H  2  X    0.099212   0.368864   0.228228   0.000000   0.000000
   23  H  2  Y    0.000000   0.000000   0.000000  -0.016605   0.072478
   24  H  2  Z    0.000000   0.000000   0.000000   0.072478   0.016605
   25  H  2 XX   -0.029095   0.117160   0.580968   0.000000   0.000000
   26  H  2 YY    0.014548  -0.058580  -0.290484   0.000000   0.000000
   27  H  2 ZZ    0.014548  -0.058580  -0.290484   0.000000   0.000000
   28  H  2 XY    0.000000   0.000000   0.000000  -0.148737   0.649205
   29  H  2 XZ    0.000000   0.000000   0.000000   0.649205   0.148737
   30  H  2 YZ    0.000000   0.000000   0.000000   0.000000   0.000000

                     16         17         18         19         20
                    3.3656     3.3656     3.5362     3.5362     3.8502
                     A          A          A          A          A   
    1  H  1  S    0.000000   0.000000   0.000000   0.000000   0.000000
    2  H  1  S    0.000000   0.000000   0.000000   0.000000   0.000000
    3  H  1  S    0.000000   0.000000   0.000000   0.000000   0.000000
    4  H  1  X    0.000000   0.000000   0.000000   0.000000   0.000000
    5  H  1  Y    0.000000   0.000000   0.000000   0.000000   0.284785
    6  H  1  Z    0.000000   0.000000   0.000000   0.000000   0.664108
    7  H  1  X    0.000000   0.000000   0.000000   0.000000   0.000000
    8  H  1  Y    0.000000   0.000000   0.000000   0.000000  -0.149363
    9  H  1  Z    0.000000   0.000000   0.000000   0.000000  -0.348308
   10  H  1 XX    0.000000   0.000000   0.000000   0.000000   0.000000
   11  H  1 YY   -0.604523   0.041941   0.618833  -0.013289   0.000000
   12  H  1 ZZ    0.604523  -0.041941  -0.618833   0.013289   0.000000
   13  H  1 XY    0.000000   0.000000   0.000000   0.000000   0.165398
   14  H  1 XZ    0.000000   0.000000   0.000000   0.000000   0.385701
   15  H  1 YZ    0.048429   0.698043  -0.015345  -0.714566   0.000000
   16  H  2  S    0.000000   0.000000   0.000000   0.000000   0.000000
   17  H  2  S    0.000000   0.000000   0.000000   0.000000   0.000000
   18  H  2  S    0.000000   0.000000   0.000000   0.000000   0.000000
   19  H  2  X    0.000000   0.000000   0.000000   0.000000   0.000000
   20  H  2  Y    0.000000   0.000000   0.000000   0.000000  -0.284785
   21  H  2  Z    0.000000   0.000000   0.000000   0.000000  -0.664108
   22  H  2  X    0.000000   0.000000   0.000000   0.000000   0.000000
   23  H  2  Y    0.000000   0.000000   0.000000   0.000000   0.149363
   24  H  2  Z    0.000000   0.000000   0.000000   0.000000   0.348308
   25  H  2 XX    0.000000   0.000000   0.000000   0.000000   0.000000
   26  H  2 YY   -0.604523   0.041941  -0.618833   0.013289   0.000000
   27  H  2 ZZ    0.604523  -0.041941   0.618833  -0.013289   0.000000
   28  H  2 XY    0.000000   0.000000   0.000000   0.000000   0.165398
   29  H  2 XZ    0.000000   0.000000   0.000000   0.000000   0.385701
   30  H  2 YZ    0.048429   0.698043   0.015345   0.714566   0.000000

                     21         22         23         24         25
                    3.8502     3.8710     3.8710     4.0324     4.1248
                     A          A          A          A          A   
    1  H  1  S    0.000000   0.000000   0.000000  -0.072178   0.000000
    2  H  1  S    0.000000   0.000000   0.000000   0.354237   0.000000
    3  H  1  S    0.000000   0.000000   0.000000   0.358035   0.000000
    4  H  1  X    0.000000   0.000000   0.000000  -0.944737   0.000000
    5  H  1  Y   -0.664108   0.884918  -0.076891   0.000000  -0.473173
    6  H  1  Z    0.284785   0.076891   0.884918   0.000000   0.302944
    7  H  1  X    0.000000   0.000000   0.000000   1.027255   0.000000
    8  H  1  Y    0.348308  -0.444586   0.038630   0.000000   0.423609
    9  H  1  Z   -0.149363  -0.038630  -0.444586   0.000000  -0.271211
   10  H  1 XX    0.000000   0.000000   0.000000   0.095558   0.000000
   11  H  1 YY    0.000000   0.000000   0.000000  -0.047779   0.000000
   12  H  1 ZZ    0.000000   0.000000   0.000000  -0.047779   0.000000
   13  H  1 XY   -0.385701   0.033182  -0.002883   0.000000   0.551856
   14  H  1 XZ    0.165398   0.002883   0.033182   0.000000  -0.353319
   15  H  1 YZ    0.000000   0.000000   0.000000   0.000000   0.000000
   16  H  2  S    0.000000   0.000000   0.000000   0.072178   0.000000
   17  H  2  S    0.000000   0.000000   0.000000  -0.354237   0.000000
   18  H  2  S    0.000000   0.000000   0.000000  -0.358035   0.000000
   19  H  2  X    0.000000   0.000000   0.000000  -0.944737   0.000000
   20  H  2  Y    0.664108   0.884918  -0.076891   0.000000   0.473173
   21  H  2  Z   -0.284785   0.076891   0.884918   0.000000  -0.302944
   22  H  2  X    0.000000   0.000000   0.000000   1.027255   0.000000
   23  H  2  Y   -0.348308  -0.444586   0.038630   0.000000  -0.423609
   24  H  2  Z    0.149363  -0.038630  -0.444586   0.000000   0.271211
   25  H  2 XX    0.000000   0.000000   0.000000  -0.095558   0.000000
   26  H  2 YY    0.000000   0.000000   0.000000   0.047779   0.000000
   27  H  2 ZZ    0.000000   0.000000   0.000000   0.047779   0.000000
   28  H  2 XY   -0.385701  -0.033182   0.002883   0.000000   0.551856
   29  H  2 XZ    0.165398  -0.002883  -0.033182   0.000000  -0.353319
   30  H  2 YZ    0.000000   0.000000   0.000000   0.000000   0.000000

                     26         27         28
                    4.1248     4.3116     5.2112
                     A          A          A   
    1  H  1  S    0.000000  -0.093410  -0.486072
    2  H  1  S    0.000000  -0.089372   1.304362
    3  H  1  S    0.000000   0.050967   0.028665
    4  H  1  X    0.000000  -0.885135  -0.112044
    5  H  1  Y   -0.302944   0.000000   0.000000
    6  H  1  Z   -0.473173   0.000000   0.000000
    7  H  1  X    0.000000   0.501710   1.189009
    8  H  1  Y    0.271211   0.000000   0.000000
    9  H  1  Z    0.423609   0.000000   0.000000
   10  H  1 XX    0.000000   0.291821   1.011728
   11  H  1 YY    0.000000  -0.145910  -0.505864
   12  H  1 ZZ    0.000000  -0.145910  -0.505864
   13  H  1 XY    0.353319   0.000000   0.000000
   14  H  1 XZ    0.551856   0.000000   0.000000
   15  H  1 YZ    0.000000   0.000000   0.000000
   16  H  2  S    0.000000  -0.093410   0.486072
   17  H  2  S    0.000000  -0.089372  -1.304362
   18  H  2  S    0.000000   0.050967  -0.028665
   19  H  2  X    0.000000   0.885135  -0.112044
   20  H  2  Y    0.302944   0.000000   0.000000
   21  H  2  Z    0.473173   0.000000   0.000000
   22  H  2  X    0.000000  -0.501710   1.189009
   23  H  2  Y   -0.271211   0.000000   0.000000
   24  H  2  Z   -0.423609   0.000000   0.000000
   25  H  2 XX    0.000000   0.291821  -1.011728
   26  H  2 YY    0.000000  -0.145910   0.505864
   27  H  2 ZZ    0.000000  -0.145910   0.505864
   28  H  2 XY    0.353319   0.000000   0.000000
   29  H  2 XZ    0.551856   0.000000   0.000000
   30  H  2 YZ    0.000000   0.000000   0.000000
 ...... END OF RHF CALCULATION ......
 CPU     0: STEP CPU TIME=     0.02 TOTAL CPU TIME=        0.1 (    0.0 MIN)
 TOTAL WALL CLOCK TIME=        0.5 SECONDS, CPU UTILIZATION IS  11.32%

     ----------------------------------------------------------------
     PROPERTY VALUES FOR THE RHF   SELF-CONSISTENT FIELD WAVEFUNCTION
     ----------------------------------------------------------------

          -----------------
          ENERGY COMPONENTS
          -----------------

         WAVEFUNCTION NORMALIZATION =       1.0000000000

                ONE ELECTRON ENERGY =      -1.8758812392
                TWO ELECTRON ENERGY =       0.4878810854
           NUCLEAR REPULSION ENERGY =       0.3703703704
                                      ------------------
                       TOTAL ENERGY =      -1.0176297834

 ELECTRON-ELECTRON POTENTIAL ENERGY =       0.4878810854
  NUCLEUS-ELECTRON POTENTIAL ENERGY =      -2.6230915539
   NUCLEUS-NUCLEUS POTENTIAL ENERGY =       0.3703703704
                                      ------------------
             TOTAL POTENTIAL ENERGY =      -1.7648400982
               TOTAL KINETIC ENERGY =       0.7472103147
                 VIRIAL RATIO (V/T) =       2.3619054280

  ...... PI ENERGY ANALYSIS ......

 ENERGY ANALYSIS:
            FOCK ENERGY=     -0.9001190907
          BARE H ENERGY=     -1.8758812392
     ELECTRONIC ENERGY =     -1.3880001650
         KINETIC ENERGY=      0.7472103147
          N-N REPULSION=      0.3703703704
           TOTAL ENERGY=     -1.0176297946
        SIGMA PART(1+2)=     -1.3880001650
               (K,V1,2)=      0.7472103147     -2.6230915539      0.4878810742
           PI PART(1+2)=      0.0000000000
               (K,V1,2)=      0.0000000000      0.0000000000      0.0000000000
  SIGMA SKELETON, ERROR=     -1.0176297946      0.0000000000
             MIXED PART= 0.00000E+00 0.00000E+00 0.00000E+00 0.00000E+00
 ...... END OF PI ENERGY ANALYSIS ......

          ---------------------------------------
          MULLIKEN AND LOWDIN POPULATION ANALYSES
          ---------------------------------------

               ----- POPULATIONS IN EACH AO -----
                             MULLIKEN      LOWDIN
              1  H  1  S      0.14354     0.12419
              2  H  1  S      0.42823     0.27840
              3  H  1  S      0.41408     0.38479
              4  H  1  X      0.00040     0.00113
              5  H  1  Y      0.00000     0.00000
              6  H  1  Z      0.00000     0.00000
              7  H  1  X      0.01350     0.01733
              8  H  1  Y      0.00000     0.00000
              9  H  1  Z      0.00000     0.00000
             10  H  1 XX      0.00006     0.07146
             11  H  1 YY      0.00018     0.06135
             12  H  1 ZZ      0.00000     0.06135
             13  H  1 XY      0.00000     0.00000
             14  H  1 XZ      0.00000     0.00000
             15  H  1 YZ      0.00000     0.00000
             16  H  2  S      0.14354     0.12419
             17  H  2  S      0.42823     0.27840
             18  H  2  S      0.41408     0.38479
             19  H  2  X      0.00040     0.00113
             20  H  2  Y      0.00000     0.00000
             21  H  2  Z      0.00000     0.00000
             22  H  2  X      0.01350     0.01733
             23  H  2  Y      0.00000     0.00000
             24  H  2  Z      0.00000     0.00000
             25  H  2 XX      0.00006     0.07146
             26  H  2 YY      0.00018     0.06135
             27  H  2 ZZ      0.00000     0.06135
             28  H  2 XY      0.00000     0.00000
             29  H  2 XZ      0.00000     0.00000
             30  H  2 YZ      0.00000     0.00000

          ----- MULLIKEN ATOMIC OVERLAP POPULATIONS -----
          (OFF-DIAGONAL ELEMENTS NEED TO BE MULTIPLIED BY 2)

             1           2

    1    0.6837626
    2    0.3162374   0.6837626

          TOTAL MULLIKEN AND LOWDIN ATOMIC POPULATIONS
       ATOM         MULL.POP.    CHARGE          LOW.POP.     CHARGE
    1 H             1.000000   -0.000000         1.000000   -0.000000
    2 H             1.000000   -0.000000         1.000000   -0.000000

          MULLIKEN SPHERICAL HARMONIC POPULATIONS
       ATOM           S       P       D      F      G      H      I    TOTAL
    1 H             0.99    0.01    0.00   0.00   0.00   0.00   0.00    1.00
    2 H             0.99    0.01    0.00   0.00   0.00   0.00   0.00    1.00

          ---------------------
          ELECTROSTATIC MOMENTS
          ---------------------

 POINT   1           X           Y           Z (BOHR)    CHARGE
                 1.350000    0.000000    0.000000       -0.00 (A.U.)
         DX          DY          DZ         /D/  (DEBYE)
    -0.000000    0.000000    0.000000    0.000000
 ...... END OF PROPERTY EVALUATION ......
 CPU     0: STEP CPU TIME=     0.01 TOTAL CPU TIME=        0.1 (    0.0 MIN)
 TOTAL WALL CLOCK TIME=        0.6 SECONDS, CPU UTILIZATION IS  10.94%

 MXVEC CANNOT BE BIGGER THAN THE NUMBER OF CIS CONFIGS
 SETTING MXVEC = NCFG


          ---------------------------------------------
             ATOMIC ORBITAL BASIS CI-SINGLES ENERGY
             PROGRAM WRITTEN BY SIMON P. WEBB
          ---------------------------------------------

 # CORE ORBITALS      =    0
 # OCCUPIED ORBITALS  =    1
 # MOLECULAR ORBITALS =   28
 # BASIS FUNCTIONS    =   30

 NUMBER OF CIS SPIN-ADAPTED ANTISYMMETRIZED PRODUCTS (SAPS) IS      27

 APPROXIMATING CIS HAMILTONIAN DIAGONAL ELEMENTS USING ONLY ORBITAL ENERGIES

 -CIS- HAM. DIAGONAL ELEMENTS  TOOK      0.000 SECONDS

 MIN MEMORY REQ. FOR CIS ENERGY FOCK-LIKE BUILDS =      1800 WORDS
 MEMORY REQ. FOR SINGLE BATCH BUILDS             =     48600 WORDS
 MEMORY AVAILABLE                                =    958955 WORDS

 SINGLE BATCH ENERGY CALCULATION WILL BE PERFORMED

 UNIT VECTOR GUESS AT CIS COEFFICIENTS ...

 USING IN MEMORY DIAGONALIZTION TO FIND CIS EIGENVALUES AND EIGENVECTORS ...

 STATE    1 ENERGY=       -0.6969459746
 STATE    2 ENERGY=       -0.4408162627
 STATE    3 ENERGY=       -0.3504905380
 STATE    4 ENERGY=       -0.2008512303
 STATE    5 ENERGY=       -0.2008512303


        --------------------------------------------------------
        RESULTS FROM SPIN-ADAPTED ANTISYMMETRIZED PRODUCT (SAPS)
        BASED ATOMIC ORBITAL CI-SINGLES ENERGY CALCULATION
        --------------------------------------------------------

 PRINTING CIS COEFFICIENTS LARGER THAN  0.050000

 RHF REFERENCE ENERGY  =        -1.0176297834


 EXCITED STATE   1  ENERGY=        -0.6969459746  S = 0.0  SPACE SYM = A   

          ----------------------------------------------
          SINGLE EXCITATION               SAP COEFFICENT
          FROM MO     TO MO
          ----------------------------------------------
             1          2                  -0.99787897
             1          4                  -0.06392049
          ----------------------------------------------


 EXCITED STATE   2  ENERGY=        -0.4408162627  S = 0.0  SPACE SYM = A   

          ----------------------------------------------
          SINGLE EXCITATION               SAP COEFFICENT
          FROM MO     TO MO
          ----------------------------------------------
             1          3                   0.99983798
          ----------------------------------------------


 EXCITED STATE   3  ENERGY=        -0.3504905380  S = 0.0  SPACE SYM = A   

          ----------------------------------------------
          SINGLE EXCITATION               SAP COEFFICENT
          FROM MO     TO MO
          ----------------------------------------------
             1          2                  -0.06407284
             1          4                   0.99770919
          ----------------------------------------------


 EXCITED STATE   4  ENERGY=        -0.2008512303  S = 0.0  SPACE SYM = A   

          ----------------------------------------------
          SINGLE EXCITATION               SAP COEFFICENT
          FROM MO     TO MO
          ----------------------------------------------
             1          5                  -0.96021511
             1          6                   0.27918980
          ----------------------------------------------


 EXCITED STATE   5  ENERGY=        -0.2008512303  S = 0.0  SPACE SYM = A   

          ----------------------------------------------
          SINGLE EXCITATION               SAP COEFFICENT
          FROM MO     TO MO
          ----------------------------------------------
             1          5                  -0.27918980
             1          6                  -0.96021511
          ----------------------------------------------

  ---------------------------------------------------------------------
                    CI-SINGLES EXCITATION ENERGIES
  STATE       HARTREE        EV      KCAL/MOL       CM-1         NM
  ---------------------------------------------------------------------
   1A     0.3206838088     8.7263    201.2322      70381.96     142.08
   1A     0.5768135208    15.6959    361.9560     126595.93      78.99
   1A     0.6671392454    18.1538    418.6363     146420.14      68.30
   1A     0.8167785532    22.2257    512.5364     179262.17      55.78
   1A     0.8167785532    22.2257    512.5364     179262.17      55.78

 -CIS- ENERGY                  TOOK      0.010 SECONDS

  ---------------------------------------------------------------------
                    CIS TRANSITION DIPOLE MOMENTS AND
                    EXPECTATION VALUES OF DIPOLE MOMENTS
  ---------------------------------------------------------------------

 GROUND STATE (SCF) DIPOLE=    -0.000000     0.000000     0.000000 DEBYE

 TRANSITION FROM THE GROUND STATE TO EXCITED STATE  1

 STATE MULTIPLICITIES =   1  1
 STATE ENERGIES =         -1.0176297834       -0.6969459746
 EXCITATION ENERGY =  2.1100E+15 [1/SEC] =    70381.96 [1/CM] =      8.73 [EV]
                            X           Y           Z           NORM
 TRANSITION DIPOLE =    2.120823    0.000000   -0.000000    2.120823 E*BOHR
 TRANSITION DIPOLE =    5.390635    0.000000   -0.000000    5.390635 DEBYE
 OSCILLATOR STRENGTH =    0.961600
 EINSTEIN COEFFICIENTS: A=  3.1774E+09 1/SEC; B=  1.8254E+09 SEC/G

 TRANSITION FROM THE GROUND STATE TO EXCITED STATE  2

 STATE MULTIPLICITIES =   1  1
 STATE ENERGIES =         -1.0176297834       -0.4408162627
 EXCITATION ENERGY =  3.7953E+15 [1/SEC] =   126595.93 [1/CM] =     15.70 [EV]
                            X           Y           Z           NORM
 TRANSITION DIPOLE =   -0.000000   -0.000000   -0.000000    0.000000 E*BOHR
 TRANSITION DIPOLE =   -0.000000   -0.000000   -0.000000    0.000000 DEBYE
 OSCILLATOR STRENGTH =    0.000000
 EINSTEIN COEFFICIENTS: A=  4.0037E-22 1/SEC; B=  3.9526E-23 SEC/G

 TRANSITION FROM THE GROUND STATE TO EXCITED STATE  3

 STATE MULTIPLICITIES =   1  1
 STATE ENERGIES =         -1.0176297834       -0.3504905380
 EXCITATION ENERGY =  4.3896E+15 [1/SEC] =   146420.14 [1/CM] =     18.15 [EV]
                            X           Y           Z           NORM
 TRANSITION DIPOLE =    0.290009   -0.000000    0.000000    0.290009 E*BOHR
 TRANSITION DIPOLE =    0.737134   -0.000000    0.000000    0.737134 DEBYE
 OSCILLATOR STRENGTH =    0.037406
 EINSTEIN COEFFICIENTS: A=  5.3493E+08 1/SEC; B=  3.4133E+07 SEC/G

 TRANSITION FROM THE GROUND STATE TO EXCITED STATE  4

 STATE MULTIPLICITIES =   1  1
 STATE ENERGIES =         -1.0176297834       -0.2008512303
 EXCITATION ENERGY =  5.3741E+15 [1/SEC] =   179262.17 [1/CM] =     22.23 [EV]
                            X           Y           Z           NORM
 TRANSITION DIPOLE =   -0.000000   -1.182201   -0.505689    1.285815 E*BOHR
 TRANSITION DIPOLE =   -0.000000   -3.004878   -1.285344    3.268241 DEBYE
 OSCILLATOR STRENGTH =    0.900265
 EINSTEIN COEFFICIENTS: A=  1.9297E+10 1/SEC; B=  6.7099E+08 SEC/G

 TRANSITION FROM THE GROUND STATE TO EXCITED STATE  5

 STATE MULTIPLICITIES =   1  1
 STATE ENERGIES =         -1.0176297834       -0.2008512303
 EXCITATION ENERGY =  5.3741E+15 [1/SEC] =   179262.17 [1/CM] =     22.23 [EV]
                            X           Y           Z           NORM
 TRANSITION DIPOLE =   -0.000000    0.505689   -1.182201    1.285815 E*BOHR
 TRANSITION DIPOLE =   -0.000000    1.285344   -3.004878    3.268241 DEBYE
 OSCILLATOR STRENGTH =    0.900265
 EINSTEIN COEFFICIENTS: A=  1.9297E+10 1/SEC; B=  6.7099E+08 SEC/G

 EXPECTATION VALUE DIPOLE MOMENT FOR EXCITED STATE  1

 STATE MULTIPLICITY =   1
 STATE ENERGY =         -0.6969459746
                            X           Y           Z           NORM
      STATE DIPOLE =   -0.000000   -0.000000   -0.000000    0.000000 E*BOHR
      STATE DIPOLE =   -0.000000   -0.000000   -0.000000    0.000000 DEBYE

 TRANSITION BETWEEN EXCITED STATES   1 AND  2

 STATE MULTIPLICITIES=  1  1
 STATE ENERGIES =         -0.6969459746       -0.4408162627
 TRANSITION ENERGY =  1.6853E+15 [1/SEC] =    56213.97 [1/CM] =        6.97 [EV]
                            X           Y           Z           NORM
 TRANSITION DIPOLE =   -1.136247   -0.000000   -0.000000    1.136247 E*BOHR
 TRANSITION DIPOLE =   -2.888075   -0.000000   -0.000000    2.888075 DEBYE
 OSCILLATOR STRENGTH =    0.220452
 EINSTEIN COEFFICIENTS: A=  4.6468E+08 1/SEC; B=  5.2397E+08 SEC/G

 TRANSITION BETWEEN EXCITED STATES   1 AND  3

 STATE MULTIPLICITIES=  1  1
 STATE ENERGIES =         -0.6969459746       -0.3504905380
 TRANSITION ENERGY =  2.2796E+15 [1/SEC] =    76038.18 [1/CM] =        9.43 [EV]
                            X           Y           Z           NORM
 TRANSITION DIPOLE =    0.000000   -0.000000   -0.000000    0.000000 E*BOHR
 TRANSITION DIPOLE =    0.000000   -0.000000   -0.000000    0.000000 DEBYE
 OSCILLATOR STRENGTH =    0.000000
 EINSTEIN COEFFICIENTS: A=  2.6272E-20 1/SEC; B=  1.1969E-20 SEC/G

 TRANSITION BETWEEN EXCITED STATES   1 AND  4

 STATE MULTIPLICITIES=  1  1
 STATE ENERGIES =         -0.6969459746       -0.2008512303
 TRANSITION ENERGY =  3.2641E+15 [1/SEC] =   108880.21 [1/CM] =       13.50 [EV]
                            X           Y           Z           NORM
 TRANSITION DIPOLE =    0.000000    0.000000    0.000000    0.000000 E*BOHR
 TRANSITION DIPOLE =    0.000000    0.000000    0.000000    0.000000 DEBYE
 OSCILLATOR STRENGTH =    0.000000
 EINSTEIN COEFFICIENTS: A=  2.7291E-20 1/SEC; B=  4.2350E-21 SEC/G

 TRANSITION BETWEEN EXCITED STATES   1 AND  5

 STATE MULTIPLICITIES=  1  1
 STATE ENERGIES =         -0.6969459746       -0.2008512303
 TRANSITION ENERGY =  3.2641E+15 [1/SEC] =   108880.21 [1/CM] =       13.50 [EV]
                            X           Y           Z           NORM
 TRANSITION DIPOLE =    0.000000   -0.000000    0.000000    0.000000 E*BOHR
 TRANSITION DIPOLE =    0.000000   -0.000000    0.000000    0.000000 DEBYE
 OSCILLATOR STRENGTH =    0.000000
 EINSTEIN COEFFICIENTS: A=  1.5807E-20 1/SEC; B=  2.4529E-21 SEC/G

 EXPECTATION VALUE DIPOLE MOMENT FOR EXCITED STATE  2

 STATE MULTIPLICITY =   1
 STATE ENERGY =         -0.4408162627
                            X           Y           Z           NORM
      STATE DIPOLE =   -0.000000   -0.000000   -0.000000    0.000000 E*BOHR
      STATE DIPOLE =   -0.000000   -0.000000   -0.000000    0.000000 DEBYE

 TRANSITION BETWEEN EXCITED STATES   2 AND  3

 STATE MULTIPLICITIES=  1  1
 STATE ENERGIES =         -0.4408162627       -0.3504905380
 TRANSITION ENERGY =  5.9431E+14 [1/SEC] =    19824.21 [1/CM] =        2.46 [EV]
                            X           Y           Z           NORM
 TRANSITION DIPOLE =    1.809219    0.000000   -0.000000    1.809219 E*BOHR
 TRANSITION DIPOLE =    4.598611    0.000000   -0.000000    4.598611 DEBYE
 OSCILLATOR STRENGTH =    0.197107
 EINSTEIN COEFFICIENTS: A=  5.1671E+07 1/SEC; B=  1.3284E+09 SEC/G

 TRANSITION BETWEEN EXCITED STATES   2 AND  4

 STATE MULTIPLICITIES=  1  1
 STATE ENERGIES =         -0.4408162627       -0.2008512303
 TRANSITION ENERGY =  1.5789E+15 [1/SEC] =    52666.24 [1/CM] =        6.53 [EV]
                            X           Y           Z           NORM
 TRANSITION DIPOLE =    0.000000    0.342183    0.146369    0.372173 E*BOHR
 TRANSITION DIPOLE =    0.000000    0.869748    0.372037    0.945977 DEBYE
 OSCILLATOR STRENGTH =    0.022159
 EINSTEIN COEFFICIENTS: A=  4.0998E+07 1/SEC; B=  5.6214E+07 SEC/G

 TRANSITION BETWEEN EXCITED STATES   2 AND  5

 STATE MULTIPLICITIES=  1  1
 STATE ENERGIES =         -0.4408162627       -0.2008512303
 TRANSITION ENERGY =  1.5789E+15 [1/SEC] =    52666.24 [1/CM] =        6.53 [EV]
                            X           Y           Z           NORM
 TRANSITION DIPOLE =   -0.000000   -0.146369    0.342183    0.372173 E*BOHR
 TRANSITION DIPOLE =   -0.000000   -0.372037    0.869748    0.945977 DEBYE
 OSCILLATOR STRENGTH =    0.022159
 EINSTEIN COEFFICIENTS: A=  4.0998E+07 1/SEC; B=  5.6214E+07 SEC/G

 EXPECTATION VALUE DIPOLE MOMENT FOR EXCITED STATE  3

 STATE MULTIPLICITY =   1
 STATE ENERGY =         -0.3504905380
                            X           Y           Z           NORM
      STATE DIPOLE =    0.000000    0.000000    0.000000    0.000000 E*BOHR
      STATE DIPOLE =    0.000000    0.000000    0.000000    0.000000 DEBYE

 TRANSITION BETWEEN EXCITED STATES   3 AND  4

 STATE MULTIPLICITIES=  1  1
 STATE ENERGIES =         -0.3504905380       -0.2008512303
 TRANSITION ENERGY =  9.8458E+14 [1/SEC] =    32842.03 [1/CM] =        4.07 [EV]
                            X           Y           Z           NORM
 TRANSITION DIPOLE =    0.000000    0.000000    0.000000    0.000000 E*BOHR
 TRANSITION DIPOLE =    0.000000    0.000000    0.000000    0.000000 DEBYE
 OSCILLATOR STRENGTH =    0.000000
 EINSTEIN COEFFICIENTS: A=  3.8330E-21 1/SEC; B=  2.1673E-20 SEC/G

 TRANSITION BETWEEN EXCITED STATES   3 AND  5

 STATE MULTIPLICITIES=  1  1
 STATE ENERGIES =         -0.3504905380       -0.2008512303
 TRANSITION ENERGY =  9.8458E+14 [1/SEC] =    32842.03 [1/CM] =        4.07 [EV]
                            X           Y           Z           NORM
 TRANSITION DIPOLE =    0.000000   -0.000000    0.000000    0.000000 E*BOHR
 TRANSITION DIPOLE =    0.000000   -0.000000    0.000000    0.000000 DEBYE
 OSCILLATOR STRENGTH =    0.000000
 EINSTEIN COEFFICIENTS: A=  3.2678E-21 1/SEC; B=  1.8478E-20 SEC/G

 EXPECTATION VALUE DIPOLE MOMENT FOR EXCITED STATE  4

 STATE MULTIPLICITY =   1
 STATE ENERGY =         -0.2008512303
                            X           Y           Z           NORM
      STATE DIPOLE =    0.000000    0.000000    0.000000    0.000000 E*BOHR
      STATE DIPOLE =    0.000000    0.000000    0.000000    0.000000 DEBYE

 TRANSITION BETWEEN EXCITED STATES   4 AND  5

 STATE MULTIPLICITIES=  1  1
 STATE ENERGIES =         -0.2008512303       -0.2008512303
 TRANSITION ENERGY =  4.1638E+01 [1/SEC] =        0.00 [1/CM] =        0.00 [EV]
                            X           Y           Z           NORM
 TRANSITION DIPOLE =   -0.000000   -0.000000    0.000000    0.000000 E*BOHR
 TRANSITION DIPOLE =   -0.000000   -0.000000    0.000000    0.000000 DEBYE
 OSCILLATOR STRENGTH =    0.000000
 EINSTEIN COEFFICIENTS: A=  2.0722E-62 1/SEC; B=  1.5492E-21 SEC/G

 EXPECTATION VALUE DIPOLE MOMENT FOR EXCITED STATE  5

 STATE MULTIPLICITY =   1
 STATE ENERGY =         -0.2008512303
                            X           Y           Z           NORM
      STATE DIPOLE =    0.000000   -0.000000    0.000000    0.000000 E*BOHR
      STATE DIPOLE =    0.000000   -0.000000    0.000000    0.000000 DEBYE

 CIS NATURAL ORBITAL OCCUPATION NUMBERS FOR EXCITED STATE    1 ARE
  1.0000 1.0000 0.0000 0.0000 0.0000 0.0000 0.0000 0.0000 0.0000 0.0000
  0.0000 0.0000 0.0000 0.0000 0.0000 0.0000 0.0000 0.0000 0.0000 0.0000
  0.0000 0.0000 0.0000 0.0000-0.0000-0.0000-0.0000-0.0000
 THERE ARE     1.0000 ELECTRONS IN PRINCIPAL CIS NATURAL ORBITALS.
 THERE ARE     1.0000 ELECTRONS IN SECONDARY CIS NATURAL ORBITALS.

          --------------------
          CIS NATURAL ORBITALS
          --------------------

                      1          2          3          4          5

                    1.0000     1.0000     0.0000     0.0000     0.0000

    1  H  1  S   -0.141122  -0.113149  -0.026697   0.000000   0.000000
    2  H  1  S   -0.272274  -0.109296   0.156200   0.000000   0.000000
    3  H  1  S   -0.246629  -1.041857   0.027813   0.000000   0.000000
    4  H  1  X   -0.002503   0.007292  -0.258432   0.000000   0.000000
    5  H  1  Y    0.000000  -0.000000   0.000000   0.324133   0.300168
    6  H  1  Z    0.000000   0.000000   0.000000  -0.300168   0.324133
    7  H  1  X   -0.026280   0.002556  -0.404638   0.000000   0.000000
    8  H  1  Y    0.000000  -0.000000   0.000000   0.269351   0.249437
    9  H  1  Z    0.000000   0.000000   0.000000  -0.249437   0.269351
   10  H  1 XX   -0.001983  -0.000200  -0.131122   0.000000   0.000000
   11  H  1 YY    0.000991   0.000100   0.065561   0.000000   0.000000
   12  H  1 ZZ    0.000991   0.000100   0.065561   0.000000   0.000000
   13  H  1 XY    0.000000  -0.000000   0.000000  -0.082825  -0.076701
   14  H  1 XZ    0.000000   0.000000   0.000000   0.076701  -0.082825
   15  H  1 YZ    0.000000   0.000000   0.000000   0.000000   0.000000
   16  H  2  S   -0.141122   0.113149  -0.026697   0.000000   0.000000
   17  H  2  S   -0.272274   0.109296   0.156200   0.000000   0.000000
   18  H  2  S   -0.246629   1.041857   0.027813   0.000000   0.000000
   19  H  2  X    0.002503   0.007292   0.258432   0.000000   0.000000
   20  H  2  Y    0.000000  -0.000000   0.000000  -0.324133  -0.300168
   21  H  2  Z    0.000000   0.000000   0.000000   0.300168  -0.324133
   22  H  2  X    0.026280   0.002556   0.404638   0.000000   0.000000
   23  H  2  Y    0.000000  -0.000000   0.000000  -0.269351  -0.249437
   24  H  2  Z    0.000000   0.000000   0.000000   0.249437  -0.269351
   25  H  2 XX   -0.001983   0.000200  -0.131122   0.000000   0.000000
   26  H  2 YY    0.000991  -0.000100   0.065561   0.000000   0.000000
   27  H  2 ZZ    0.000991  -0.000100   0.065561   0.000000   0.000000
   28  H  2 XY    0.000000   0.000000   0.000000  -0.082825  -0.076701
   29  H  2 XZ    0.000000  -0.000000   0.000000   0.076701  -0.082825
   30  H  2 YZ    0.000000   0.000000   0.000000   0.000000   0.000000

                      6          7          8          9         10

                    0.0000     0.0000     0.0000     0.0000     0.0000

    1  H  1  S    0.371282  -0.045516   0.000000   0.000000   0.000000
    2  H  1  S    0.083826  -0.020295   0.000000   0.000000   0.000000
    3  H  1  S   -0.125168   0.041683   0.000000   0.000000   0.000000
    4  H  1  X    0.313096   0.099355   0.000000   0.000000   0.000000
    5  H  1  Y    0.077654   0.000000  -0.023538   0.121023   0.000000
    6  H  1  Z    0.014585   0.000000   0.121023   0.023538   0.000000
    7  H  1  X    0.307873   0.130984   0.000000   0.000000   0.000000
    8  H  1  Y    0.093856   0.000000  -0.010976   0.056437   0.000000
    9  H  1  Z    0.017629   0.000000   0.056437   0.010976   0.000000
   10  H  1 XX   -0.297894  -0.628201   0.000000   0.000000   0.000000
   11  H  1 YY    0.148947   0.314100   0.000000   0.000000   0.000000
   12  H  1 ZZ    0.148947   0.314100   0.000000   0.000000   0.000000
   13  H  1 XY    0.022915   0.000000   0.124720  -0.641266   0.000000
   14  H  1 XZ    0.004304   0.000000  -0.641266  -0.124720   0.000000
   15  H  1 YZ    0.000000   0.000000   0.000000   0.000000  -0.699721
   16  H  2  S   -0.371282  -0.045516   0.000000   0.000000   0.000000
   17  H  2  S   -0.083826  -0.020295   0.000000   0.000000   0.000000
   18  H  2  S    0.125168   0.041683   0.000000   0.000000   0.000000
   19  H  2  X    0.313096  -0.099355   0.000000   0.000000   0.000000
   20  H  2  Y    0.077654   0.000000  -0.023538   0.121023   0.000000
   21  H  2  Z    0.014585   0.000000   0.121023   0.023538   0.000000
   22  H  2  X    0.307873  -0.130984   0.000000   0.000000   0.000000
   23  H  2  Y    0.093856   0.000000  -0.010976   0.056437   0.000000
   24  H  2  Z    0.017629   0.000000   0.056437   0.010976   0.000000
   25  H  2 XX    0.297894  -0.628201   0.000000   0.000000   0.000000
   26  H  2 YY   -0.148947   0.314100   0.000000   0.000000   0.000000
   27  H  2 ZZ   -0.148947   0.314100   0.000000   0.000000   0.000000
   28  H  2 XY   -0.022915   0.000000  -0.124720   0.641266   0.000000
   29  H  2 XZ   -0.004304   0.000000   0.641266   0.124720   0.000000
   30  H  2 YZ    0.000000   0.000000   0.000000   0.000000  -0.699721

                     11         12         13         14         15

                    0.0000     0.0000     0.0000     0.0000     0.0000

    1  H  1  S    0.000000   0.000000   0.000000   0.000000   0.000000
    2  H  1  S    0.000000   0.000000   0.000000   0.000000   0.000000
    3  H  1  S    0.000000   0.000000   0.000000   0.000000   0.000000
    4  H  1  X    0.000000   0.000000   0.000000   0.000000   0.000000
    5  H  1  Y    0.000000   0.000000   0.000000  -0.154243   0.109795
    6  H  1  Z    0.000000   0.000000   0.000000  -0.109795  -0.154243
    7  H  1  X    0.000000   0.000000   0.000000   0.000000   0.000000
    8  H  1  Y    0.000000   0.000000   0.000000  -0.000824   0.000586
    9  H  1  Z    0.000000   0.000000   0.000000  -0.000586  -0.000824
   10  H  1 XX    0.000000   0.000000   0.000000   0.000000   0.000000
   11  H  1 YY   -0.605976   0.000000   0.618975   0.000000   0.000000
   12  H  1 ZZ    0.605976   0.000000  -0.618975   0.000000   0.000000
   13  H  1 XY    0.000000   0.000000   0.000000  -0.606305   0.431587
   14  H  1 XZ    0.000000   0.000000   0.000000  -0.431587  -0.606305
   15  H  1 YZ    0.000000  -0.714731   0.000000   0.000000   0.000000
   16  H  2  S    0.000000   0.000000   0.000000   0.000000   0.000000
   17  H  2  S    0.000000   0.000000   0.000000   0.000000   0.000000
   18  H  2  S    0.000000   0.000000   0.000000   0.000000   0.000000
   19  H  2  X    0.000000   0.000000   0.000000   0.000000   0.000000
   20  H  2  Y    0.000000   0.000000   0.000000   0.154243  -0.109795
   21  H  2  Z    0.000000   0.000000   0.000000   0.109795   0.154243
   22  H  2  X    0.000000   0.000000   0.000000   0.000000   0.000000
   23  H  2  Y    0.000000   0.000000   0.000000   0.000824  -0.000586
   24  H  2  Z    0.000000   0.000000   0.000000   0.000586   0.000824
   25  H  2 XX    0.000000   0.000000   0.000000   0.000000   0.000000
   26  H  2 YY   -0.605976   0.000000  -0.618975   0.000000   0.000000
   27  H  2 ZZ    0.605976   0.000000   0.618975   0.000000   0.000000
   28  H  2 XY    0.000000   0.000000   0.000000  -0.606305   0.431587
   29  H  2 XZ    0.000000   0.000000   0.000000  -0.431587  -0.606305
   30  H  2 YZ    0.000000   0.714731   0.000000   0.000000   0.000000

                     16         17         18         19         20

                    0.0000     0.0000     0.0000     0.0000     0.0000

    1  H  1  S    0.672469   0.228863  -0.145296   0.000000   0.000000
    2  H  1  S    0.074414  -0.011755   0.120585   0.000000   0.000000
    3  H  1  S   -0.480433  -0.019623   0.003083   0.000000   0.000000
    4  H  1  X   -0.098823   0.429489  -0.089475   0.000000   0.000000
    5  H  1  Y    0.000000  -0.007904   0.309929  -0.808530  -0.132104
    6  H  1  Z    0.000000  -0.002457   0.061815  -0.132104   0.808530
    7  H  1  X    0.061840  -0.027487   0.027470   0.000000   0.000000
    8  H  1  Y    0.000000  -0.009553   0.374594   0.691357   0.112960
    9  H  1  Z    0.000000  -0.002970   0.074712   0.112960  -0.691357
   10  H  1 XX   -0.085914   0.711102   0.129882   0.000000   0.000000
   11  H  1 YY    0.042957  -0.355551  -0.064941   0.000000   0.000000
   12  H  1 ZZ    0.042957  -0.355551  -0.064941   0.000000   0.000000
   13  H  1 XY    0.000000  -0.002332   0.091459  -0.091744  -0.014990
   14  H  1 XZ    0.000000  -0.000725   0.018241  -0.014990   0.091744
   15  H  1 YZ    0.000000   0.000000   0.000000   0.000000   0.000000
   16  H  2  S    0.672469  -0.228863   0.145296   0.000000   0.000000
   17  H  2  S    0.074414   0.011755  -0.120585   0.000000   0.000000
   18  H  2  S   -0.480433   0.019623  -0.003083   0.000000   0.000000
   19  H  2  X    0.098823   0.429489  -0.089475   0.000000   0.000000
   20  H  2  Y    0.000000  -0.007904   0.309929  -0.808530  -0.132104
   21  H  2  Z    0.000000  -0.002457   0.061815  -0.132104   0.808530
   22  H  2  X   -0.061840  -0.027487   0.027470   0.000000   0.000000
   23  H  2  Y    0.000000  -0.009553   0.374594   0.691357   0.112960
   24  H  2  Z    0.000000  -0.002970   0.074712   0.112960  -0.691357
   25  H  2 XX   -0.085914  -0.711102  -0.129882   0.000000   0.000000
   26  H  2 YY    0.042957   0.355551   0.064941   0.000000   0.000000
   27  H  2 ZZ    0.042957   0.355551   0.064941   0.000000   0.000000
   28  H  2 XY    0.000000   0.002332  -0.091459   0.091744   0.014990
   29  H  2 XZ    0.000000   0.000725  -0.018241   0.014990  -0.091744
   30  H  2 YZ    0.000000   0.000000   0.000000   0.000000   0.000000

                     21         22         23         24         25

                    0.0000     0.0000     0.0000     0.0000    -0.0000

    1  H  1  S   -0.224913   0.000000   0.000000   0.829005  -0.948084
    2  H  1  S    0.036111   0.000000   0.000000  -1.616105   2.281972
    3  H  1  S   -0.032429   0.000000   0.000000   0.957202  -0.480046
    4  H  1  X   -0.904893   0.000000   0.000000  -0.131908  -0.339683
    5  H  1  Y    0.000000  -0.765867  -0.161603   0.000000  -0.022078
    6  H  1  Z    0.000000  -0.161603   0.765867   0.000000   0.009914
    7  H  1  X    0.720086   0.000000   0.000000   0.202611   1.644060
    8  H  1  Y    0.000000   0.981131   0.207026   0.000000  -0.026685
    9  H  1  Z    0.000000   0.207026  -0.981131   0.000000   0.011982
   10  H  1 XX    0.019108   0.000000   0.000000   0.072018   0.581567
   11  H  1 YY   -0.009554   0.000000   0.000000  -0.036009  -0.290784
   12  H  1 ZZ   -0.009554   0.000000   0.000000  -0.036009  -0.290784
   13  H  1 XY    0.000000   0.193503   0.040830   0.000000  -0.006515
   14  H  1 XZ    0.000000   0.040830  -0.193503   0.000000   0.002925
   15  H  1 YZ    0.000000   0.000000   0.000000   0.000000   0.000000
   16  H  2  S   -0.224913   0.000000   0.000000   0.829005   0.948084
   17  H  2  S    0.036111   0.000000   0.000000  -1.616105  -2.281972
   18  H  2  S   -0.032429   0.000000   0.000000   0.957202   0.480046
   19  H  2  X    0.904893   0.000000   0.000000   0.131908  -0.339683
   20  H  2  Y    0.000000   0.765867   0.161603   0.000000  -0.022078
   21  H  2  Z    0.000000   0.161603  -0.765867   0.000000   0.009914
   22  H  2  X   -0.720086   0.000000   0.000000  -0.202611   1.644060
   23  H  2  Y    0.000000  -0.981131  -0.207026   0.000000  -0.026685
   24  H  2  Z    0.000000  -0.207026   0.981131   0.000000   0.011982
   25  H  2 XX    0.019108   0.000000   0.000000   0.072018  -0.581567
   26  H  2 YY   -0.009554   0.000000   0.000000  -0.036009   0.290784
   27  H  2 ZZ   -0.009554   0.000000   0.000000  -0.036009   0.290784
   28  H  2 XY    0.000000   0.193503   0.040830   0.000000   0.006515
   29  H  2 XZ    0.000000   0.040830  -0.193503   0.000000  -0.002925
   30  H  2 YZ    0.000000   0.000000   0.000000   0.000000   0.000000

                     26         27         28

                   -0.0000    -0.0000    -0.0000

    1  H  1  S    0.478712   0.373288  -0.044780
    2  H  1  S   -0.008331  -0.329675  -0.506326
    3  H  1  S   -0.299760   1.086412   1.474138
    4  H  1  X   -0.451167  -0.554053  -0.065588
    5  H  1  Y   -0.037405   0.035891  -0.035406
    6  H  1  Z    0.189527  -0.185293   0.179402
    7  H  1  X    0.267568   1.167248   0.797187
    8  H  1  Y   -0.045209   0.043379  -0.042794
    9  H  1  Z    0.229071  -0.223953   0.216832
   10  H  1 XX    0.113081   0.267454   0.113842
   11  H  1 YY   -0.056541  -0.133727  -0.056921
   12  H  1 ZZ   -0.056541  -0.133727  -0.056921
   13  H  1 XY   -0.011038   0.010591  -0.010448
   14  H  1 XZ    0.055929  -0.054679   0.052941
   15  H  1 YZ    0.000000   0.000000   0.000000
   16  H  2  S   -0.478712  -0.373288   0.044780
   17  H  2  S    0.008331   0.329675   0.506326
   18  H  2  S    0.299760  -1.086412  -1.474138
   19  H  2  X   -0.451167  -0.554053  -0.065588
   20  H  2  Y   -0.037405   0.035891  -0.035406
   21  H  2  Z    0.189527  -0.185293   0.179402
   22  H  2  X    0.267568   1.167248   0.797187
   23  H  2  Y   -0.045209   0.043379  -0.042794
   24  H  2  Z    0.229071  -0.223953   0.216832
   25  H  2 XX   -0.113081  -0.267454  -0.113842
   26  H  2 YY    0.056541   0.133727   0.056921
   27  H  2 ZZ    0.056541   0.133727   0.056921
   28  H  2 XY    0.011038  -0.010591   0.010448
   29  H  2 XZ   -0.055929   0.054679  -0.052941
   30  H  2 YZ    0.000000   0.000000   0.000000

 THE CIS NATURAL ORBITALS HAVE BEEN PUNCHED.

 ..... DONE WITH CIS ENERGY .....

 CPU     0: STEP CPU TIME=     0.01 TOTAL CPU TIME=        0.1 (    0.0 MIN)
 TOTAL WALL CLOCK TIME=        0.8 SECONDS, CPU UTILIZATION IS   9.88%

     -------------------------------------------------------------
     CIS   PROPERTIES...FOR THE WAVEFUNCTION OF EXCITED STATE    1
                 USING THE EXPECTATION VALUE DENSITY
     -------------------------------------------------------------

          -----------------
          ENERGY COMPONENTS
          -----------------

         WAVEFUNCTION NORMALIZATION =       1.0000000000

                ONE ELECTRON ENERGY =      -1.5367931166
                TWO ELECTRON ENERGY =       0.4694767716
           NUCLEAR REPULSION ENERGY =       0.3703703704
                                      ------------------
                       TOTAL ENERGY =      -0.6969459746

 ELECTRON-ELECTRON POTENTIAL ENERGY =       0.4694767716
  NUCLEUS-ELECTRON POTENTIAL ENERGY =      -2.2648288556
   NUCLEUS-NUCLEUS POTENTIAL ENERGY =       0.3703703704
                                      ------------------
             TOTAL POTENTIAL ENERGY =      -1.4249817136
               TOTAL KINETIC ENERGY =       0.7280357390
                 VIRIAL RATIO (V/T) =       1.9572963761

          ---------------------------------------
          MULLIKEN AND LOWDIN POPULATION ANALYSES
          ---------------------------------------

               ----- POPULATIONS IN EACH AO -----
                             MULLIKEN      LOWDIN
              1  H  1  S      0.11390     0.09547
              2  H  1  S      0.26903     0.24191
              3  H  1  S      0.60830     0.44277
              4  H  1  X      0.00096     0.00128
              5  H  1  Y      0.00000     0.00000
              6  H  1  Z      0.00000     0.00000
              7  H  1  X      0.00771     0.06500
              8  H  1  Y      0.00000     0.00000
              9  H  1  Z      0.00000     0.00000
             10  H  1 XX      0.00003     0.04866
             11  H  1 YY      0.00008     0.05246
             12  H  1 ZZ      0.00000     0.05246
             13  H  1 XY      0.00000     0.00000
             14  H  1 XZ      0.00000     0.00000
             15  H  1 YZ      0.00000     0.00000
             16  H  2  S      0.11390     0.09547
             17  H  2  S      0.26903     0.24191
             18  H  2  S      0.60830     0.44277
             19  H  2  X      0.00096     0.00128
             20  H  2  Y      0.00000     0.00000
             21  H  2  Z      0.00000     0.00000
             22  H  2  X      0.00771     0.06500
             23  H  2  Y      0.00000     0.00000
             24  H  2  Z      0.00000     0.00000
             25  H  2 XX      0.00003     0.04866
             26  H  2 YY      0.00008     0.05246
             27  H  2 ZZ      0.00000     0.05246
             28  H  2 XY      0.00000     0.00000
             29  H  2 XZ      0.00000     0.00000
             30  H  2 YZ      0.00000     0.00000

          ----- MULLIKEN ATOMIC OVERLAP POPULATIONS -----
          (OFF-DIAGONAL ELEMENTS NEED TO BE MULTIPLIED BY 2)

             1           2

    1    1.7373750
    2   -0.7373750   1.7373750

          TOTAL MULLIKEN AND LOWDIN ATOMIC POPULATIONS
       ATOM         MULL.POP.    CHARGE          LOW.POP.     CHARGE
    1 H             1.000000    0.000000         1.000000    0.000000
    2 H             1.000000   -0.000000         1.000000   -0.000000

          MULLIKEN SPHERICAL HARMONIC POPULATIONS
       ATOM           S       P       D      F      G      H      I    TOTAL
    1 H             0.99    0.01    0.00   0.00   0.00   0.00   0.00    1.00
    2 H             0.99    0.01    0.00   0.00   0.00   0.00   0.00    1.00

          ---------------------
          ELECTROSTATIC MOMENTS
          ---------------------

 POINT   1           X           Y           Z (BOHR)    CHARGE
                 1.350000    0.000000    0.000000       -0.00 (A.U.)
         DX          DY          DZ         /D/  (DEBYE)
    -0.000000   -0.000000   -0.000000    0.000000
 ...... END OF PROPERTY EVALUATION ......
 CPU     0: STEP CPU TIME=     0.01 TOTAL CPU TIME=        0.1 (    0.0 MIN)
 TOTAL WALL CLOCK TIME=        0.9 SECONDS, CPU UTILIZATION IS  10.34%
                580000  WORDS OF DYNAMIC MEMORY USED
 EXECUTION OF GAMESS TERMINATED NORMALLY Wed Apr 12 18:21:08 2017
 DDI: 263640 bytes (0.3 MB / 0 MWords) used by master data server.

 ----------------------------------------
 CPU timing information for all processes
 ========================================
 0: 0.47 + 0.52 = 0.100
 1: 0.18 + 0.27 = 0.45
 2: 0.20 + 0.34 = 0.55
 3: 0.19 + 0.28 = 0.47
 4: 0.18 + 0.37 = 0.55
 5: 0.18 + 0.25 = 0.44
 6: 0.19 + 0.35 = 0.55
 7: 0.17 + 0.19 = 0.36
 8: 0.20 + 0.38 = 0.59
 9: 0.15 + 0.23 = 0.39
 10: 0.17 + 0.29 = 0.46
 11: 0.16 + 0.21 = 0.37
 12: 0.22 + 0.32 = 0.54
 13: 0.18 + 0.20 = 0.39
 14: 0.21 + 0.26 = 0.48
 15: 0.16 + 0.18 = 0.35
 ----------------------------------------
 ddikick.x: exited gracefully.
----- accounting info -----
Files used on the master node kylin.physics.illinois.edu were:
-rw-rw-r--. 1 yyang173 yyang173     331 Apr 12 18:21 /scr/yyang173/sep2.70-cis.F05
-rw-rw-r--. 1 yyang173 yyang173  180016 Apr 12 18:21 /scr/yyang173/sep2.70-cis.F08
-rw-rw-r--. 1 yyang173 yyang173  180016 Apr 12 18:21 /scr/yyang173/sep2.70-cis.F08.001
-rw-rw-r--. 1 yyang173 yyang173  180016 Apr 12 18:21 /scr/yyang173/sep2.70-cis.F08.002
-rw-rw-r--. 1 yyang173 yyang173  180016 Apr 12 18:21 /scr/yyang173/sep2.70-cis.F08.003
-rw-rw-r--. 1 yyang173 yyang173  180016 Apr 12 18:21 /scr/yyang173/sep2.70-cis.F08.004
-rw-rw-r--. 1 yyang173 yyang173  180016 Apr 12 18:21 /scr/yyang173/sep2.70-cis.F08.005
-rw-rw-r--. 1 yyang173 yyang173  180016 Apr 12 18:21 /scr/yyang173/sep2.70-cis.F08.006
-rw-rw-r--. 1 yyang173 yyang173  180016 Apr 12 18:21 /scr/yyang173/sep2.70-cis.F08.007
-rw-rw-r--. 1 yyang173 yyang173  180016 Apr 12 18:21 /scr/yyang173/sep2.70-cis.F08.008
-rw-rw-r--. 1 yyang173 yyang173  180016 Apr 12 18:21 /scr/yyang173/sep2.70-cis.F08.009
-rw-rw-r--. 1 yyang173 yyang173  180016 Apr 12 18:21 /scr/yyang173/sep2.70-cis.F08.010
-rw-rw-r--. 1 yyang173 yyang173  180016 Apr 12 18:21 /scr/yyang173/sep2.70-cis.F08.011
-rw-rw-r--. 1 yyang173 yyang173  180016 Apr 12 18:21 /scr/yyang173/sep2.70-cis.F08.012
-rw-rw-r--. 1 yyang173 yyang173  180016 Apr 12 18:21 /scr/yyang173/sep2.70-cis.F08.013
-rw-rw-r--. 1 yyang173 yyang173  180016 Apr 12 18:21 /scr/yyang173/sep2.70-cis.F08.014
-rw-rw-r--. 1 yyang173 yyang173  180016 Apr 12 18:21 /scr/yyang173/sep2.70-cis.F08.015
-rw-rw-r--. 1 yyang173 yyang173 1636000 Apr 12 18:21 /scr/yyang173/sep2.70-cis.F10
-rw-rw-r--. 1 yyang173 yyang173    1120 Apr 12 18:21 /scr/yyang173/sep2.70-cis.F12
Wed Apr 12 18:21:11 CDT 2017
0.238u 0.110s 0:04.40 7.7%	0+0k 0+16io 0pf+0w
