----- GAMESS execution script 'rungms' -----
This job is running on host kylin.physics.illinois.edu
under operating system Linux at Mon Apr 17 23:10:46 CDT 2017
Available scratch disk space (Kbyte units) at beginning of the job is
Filesystem                    1K-blocks     Used Available Use% Mounted on
/dev/mapper/fedora_kylin-root 110123880 60566544  44515220  58% /
GAMESS temporary binary files will be written to /scr/yyang173
GAMESS supplementary output files will be written to /home/yyang173/Desktop/attempts/drag-node/hf_grid/ccd_cis/sep1.90
Copying input file sep1.90-cis.inp to your run's scratch directory...
 
Assuming a single but multicore node.
 

 Distributed Data Interface kickoff program.
 Initiating 16 compute processes on 1 nodes to run the following command:
 /opt/intel17/apps/gamess_2016R1/gamess.00.x sep1.90-cis 

          ******************************************************
          *         GAMESS VERSION = 18 AUG 2016 (R1)          *
          *             FROM IOWA STATE UNIVERSITY             *
          * M.W.SCHMIDT, K.K.BALDRIDGE, J.A.BOATZ, S.T.ELBERT, *
          *   M.S.GORDON, J.H.JENSEN, S.KOSEKI, N.MATSUNAGA,   *
          *          K.A.NGUYEN, S.J.SU, T.L.WINDUS,           *
          *       TOGETHER WITH M.DUPUIS, J.A.MONTGOMERY       *
          *         J.COMPUT.CHEM.  14, 1347-1363(1993)        *
          **************** 64 BIT INTEL VERSION ****************

  SINCE 1993, STUDENTS AND POSTDOCS WORKING AT IOWA STATE UNIVERSITY
  AND ALSO IN THEIR VARIOUS JOBS AFTER LEAVING ISU HAVE MADE IMPORTANT
  CONTRIBUTIONS TO THE CODE:
     IVANA ADAMOVIC, CHRISTINE AIKENS, YURI ALEXEEV, POOJA ARORA,
     ANDREY ASADCHEV, ROB BELL, PRADIPTA BANDYOPADHYAY, JONATHAN BENTZ,
     BRETT BODE, KURT BRORSEN, CALEB CARLIN, GALINA CHABAN, WEI CHEN,
     CHEOL HO CHOI, PAUL DAY, ALBERT DEFUSCO, NUWAN DESILVA, TIM DUDLEY,
     DMITRI FEDOROV, GRAHAM FLETCHER, MARK FREITAG, KURT GLAESEMANN,
     DAN KEMP, GRANT MERRILL, NORIYUKI MINEZAWA, JONATHAN MULLIN,
     TAKESHI NAGATA, SEAN NEDD, HEATHER NETZLOFF, BOSILJKA NJEGIC, RYAN OLSON,
     MIKE PAK, SPENCER PRUITT, LUKE ROSKOP, JIM SHOEMAKER, LYUDMILA SLIPCHENKO,
     TONY SMITH, SAROM SOK LEANG, JIE SONG, TETSUYA TAKETSUGU, SIMON WEBB,
     PENG XU, SOOHAENG YOO, FEDERICO ZAHARIEV

  ADDITIONAL CODE HAS BEEN PROVIDED BY COLLABORATORS IN OTHER GROUPS:
     IOWA STATE UNIVERSITY:
          JOE IVANIC, AARON WEST, LAIMUTIS BYTAUTAS, KLAUS RUEDENBERG
     UNIVERSITY OF TOKYO: KIMIHIKO HIRAO, TAKAHITO NAKAJIMA,
          TAKAO TSUNEDA, MUNEAKI KAMIYA, SUSUMU YANAGISAWA,
          KIYOSHI YAGI, MAHITO CHIBA, SEIKEN TOKURA, NAOAKI KAWAKAMI
     UNIVERSITY OF AARHUS: FRANK JENSEN
     UNIVERSITY OF IOWA: VISVALDAS KAIRYS, HUI LI
     NATIONAL INST. OF STANDARDS AND TECHNOLOGY: WALT STEVENS, DAVID GARMER
     UNIVERSITY OF PISA: BENEDETTA MENNUCCI, JACOPO TOMASI
     UNIVERSITY OF MEMPHIS: HENRY KURTZ, PRAKASHAN KORAMBATH
     UNIVERSITY OF ALBERTA: TOBY ZENG, MARIUSZ KLOBUKOWSKI
     UNIVERSITY OF NEW ENGLAND: MARK SPACKMAN
     MIE UNIVERSITY: HIROAKI UMEDA
     NAT. INST. OF ADVANCED INDUSTRIAL SCIENCE AND TECHNOLOGY: KAZUO KITAURA
     MICHIGAN STATE UNIVERSITY:
          KAROL KOWALSKI, MARTA WLOCH, JEFFREY GOUR, JESSE LUTZ,
          WEI LI, PIOTR PIECUCH
     UNIVERSITY OF SILESIA: MONIKA MUSIAL, STANISLAW KUCHARSKI
     FACULTES UNIVERSITAIRES NOTRE-DAME DE LA PAIX:
          OLIVIER QUINET, BENOIT CHAMPAGNE
     UNIVERSITY OF CALIFORNIA - SANTA BARBARA: BERNARD KIRTMAN
     INSTITUTE FOR MOLECULAR SCIENCE:
          KAZUYA ISHIMURA, MICHIO KATOUDA, AND SHIGERU NAGASE
     UNIVERSITY OF NOTRE DAME: ANNA POMOGAEVA, DAN CHIPMAN
     KYUSHU UNIVERSITY:
          HARUYUKI NAKANO,
          FENG LONG GU, JACEK KORCHOWIEC, MARCIN MAKOWSKI, AND YURIKO AOKI,
          HIROTOSHI MORI AND EISAKU MIYOSHI
     PENNSYLVANIA STATE UNIVERSITY:
          TZVETELIN IORDANOV, CHET SWALINA, JONATHAN SKONE,
          SHARON HAMMES-SCHIFFER
     WASEDA UNIVERSITY:
          MASATO KOBAYASHI, TOMOKO AKAMA, TSUGUKI TOUMA,
          TAKESHI YOSHIKAWA, YASUHIRO IKABATA, JUNJI SEINO,
          YUYA NAKAJIMA, HIROMI NAKAI
     NANJING UNIVERSITY: SHUHUA LI
     UNIVERSITY OF NEBRASKA:
          PEIFENG SU, DEJUN SI, NANDUN THELLAMUREGE, YALI WANG, HUI LI
     UNIVERSITY OF ZURICH: ROBERTO PEVERATI, KIM BALDRIDGE
     N. COPERNICUS UNIVERSITY AND JACKSON STATE UNIVERSITY:
          MARIA BARYSZ
     UNIVERSITY OF COPENHAGEN: Jimmy Kromann, CASPER STEINMANN
     TOKYO INSTITUTE OF TECHNOLOGY: HIROYA NAKATA
     NAGOYA UNIVERSITY: YOSHIO NISHIMOTO, STEPHAN IRLE
     MOSCOW STATE UNIVERSITY: VLADIMIR MIRONOV


 PARALLEL VERSION RUNNING ON       16 PROCESSORS IN        1 NODES.

 EXECUTION OF GAMESS BEGUN Mon Apr 17 23:10:46 2017

            ECHO OF THE FIRST FEW INPUT CARDS -
 INPUT CARD> $contrl coord=unique icharg=0 ispher=1 mult=1 runtyp=energy                    
 INPUT CARD>         scftyp=rhf cityp=cis units=bohr  $end                                  
 INPUT CARD> $basis  gbasis=ccd  $end                                                       
 INPUT CARD> $guess  guess=huckel  $end                                                     
 INPUT CARD> $cis    nstate=5 $end                                                          
 INPUT CARD> $DATA                                                                          
 INPUT CARD>A molecule.                                                                     
 INPUT CARD>C1                                                                              
 INPUT CARD>H 1.00       0.00000000       0.00000000       0.00000000                       
 INPUT CARD>H 1.00       1.900000000       0.00000000       0.00000000                      
 INPUT CARD> $END                                                                           
    1000000 WORDS OF MEMORY AVAILABLE

     BASIS OPTIONS
     -------------
     GBASIS=CCD          IGAUSS=       0      POLAR=NONE    
     NDFUNC=       0     NFFUNC=       0     DIFFSP=       F
     NPFUNC=       0      DIFFS=       F     BASNAM=        


     RUN TITLE
     ---------
 A molecule.                                                                     

 THE POINT GROUP OF THE MOLECULE IS C1      
 THE ORDER OF THE PRINCIPAL AXIS IS     0

 ATOM      ATOMIC                      COORDINATES (BOHR)
           CHARGE         X                   Y                   Z
 H           1.0     0.0000000000        0.0000000000        0.0000000000
 H           1.0     1.9000000000        0.0000000000        0.0000000000

          INTERNUCLEAR DISTANCES (ANGS.)
          ------------------------------

                1 H          2 H     

   1 H       0.0000000    1.0054368 *
   2 H       1.0054368 *  0.0000000  

  * ... LESS THAN  3.000


     ATOMIC BASIS SET
     ----------------
 THE CONTRACTED PRIMITIVE FUNCTIONS HAVE BEEN UNNORMALIZED
 THE CONTRACTED BASIS FUNCTIONS ARE NOW NORMALIZED TO UNITY

  SHELL TYPE  PRIMITIVE        EXPONENT          CONTRACTION COEFFICIENT(S)

 H         

      1   S       1            13.0100000    0.033498726390
      1   S       2             1.9620000    0.234800801174
      1   S       3             0.4446000    0.813682957883

      2   S       4             0.1220000    1.000000000000

      3   P       5             0.7270000    1.000000000000

 H         

      4   S       6            13.0100000    0.033498726390
      4   S       7             1.9620000    0.234800801174
      4   S       8             0.4446000    0.813682957883

      5   S       9             0.1220000    1.000000000000

      6   P      10             0.7270000    1.000000000000

 TOTAL NUMBER OF BASIS SET SHELLS             =    6
 NUMBER OF CARTESIAN GAUSSIAN BASIS FUNCTIONS =   10
 NOTE: THIS RUN WILL RESTRICT THE MO VARIATION SPACE TO SPHERICAL HARMONICS.
 THE NUMBER OF ORBITALS KEPT IN THE VARIATIONAL SPACE WILL BE PRINTED LATER.
 NUMBER OF ELECTRONS                          =    2
 CHARGE OF MOLECULE                           =    0
 SPIN MULTIPLICITY                            =    1
 NUMBER OF OCCUPIED ORBITALS (ALPHA)          =    1
 NUMBER OF OCCUPIED ORBITALS (BETA )          =    1
 TOTAL NUMBER OF ATOMS                        =    2
 THE NUCLEAR REPULSION ENERGY IS        0.5263157895

 THIS MOLECULE IS RECOGNIZED AS BEING LINEAR,
 ORBITAL LZ DEGENERACY TOLERANCE ETOLLZ= 1.00E-06

     $CONTRL OPTIONS
     ---------------
 SCFTYP=RHF          RUNTYP=ENERGY       EXETYP=RUN     
 MPLEVL=       0     CITYP =CIS          CCTYP =NONE         VBTYP =NONE    
 DFTTYP=NONE         TDDFT =NONE    
 MULT  =       1     ICHARG=       0     NZVAR =       0     COORD =UNIQUE  
 PP    =NONE         RELWFN=NONE         LOCAL =NONE         NUMGRD=       F
 ISPHER=       1     NOSYM =       0     MAXIT =      30     UNITS =BOHR    
 PLTORB=       F     MOLPLT=       F     AIMPAC=       F     FRIEND=        
 NPRINT=       7     IREST =       0     GEOM  =INPUT   
 NORMF =       0     NORMP =       0     ITOL  =      20     ICUT  =       9
 INTTYP=BEST         GRDTYP=BEST         QMTTOL= 1.0E-06

     $SYSTEM OPTIONS
     ---------------
  REPLICATED MEMORY=     1000000 WORDS (ON EVERY NODE).
 DISTRIBUTED MEMDDI=           0 MILLION WORDS IN AGGREGATE,
 MEMDDI DISTRIBUTED OVER  16 PROCESSORS IS           0 WORDS/PROCESSOR.
 TOTAL MEMORY REQUESTED ON EACH PROCESSOR=     1000000 WORDS.
 TIMLIM=      525600.00 MINUTES, OR     365.0 DAYS.
 PARALL= T  BALTYP=  DLB     KDIAG=    0  COREFL= F
 MXSEQ2=     300 MXSEQ3=     150  mem10=         0

          ----------------
          PROPERTIES INPUT
          ----------------

     MOMENTS            FIELD           POTENTIAL          DENSITY
 IEMOM =       1   IEFLD =       0   IEPOT =       0   IEDEN =       0
 WHERE =COMASS     WHERE =NUCLEI     WHERE =NUCLEI     WHERE =NUCLEI  
 OUTPUT=BOTH       OUTPUT=BOTH       OUTPUT=BOTH       OUTPUT=BOTH    
 IEMINT=       0   IEFINT=       0                     IEDINT=       0
                                                       MORB  =       0
          EXTRAPOLATION IN EFFECT
          SOSCF IN EFFECT
 ORBITAL PRINTING OPTION: NPREO=     1    10     2     1

     -------------------------------
     INTEGRAL TRANSFORMATION OPTIONS
     -------------------------------
     NWORD  =            0
     CUTOFF = 1.0E-09     MPTRAN =       0
     DIRTRF =       F     AOINTS =DUP     

          ----------------------
          INTEGRAL INPUT OPTIONS
          ----------------------
 NOPK  =       1 NORDER=       0 SCHWRZ=       F

     ------------------------------
     CI-SINGLES CONTROL INFORMATION
     ------------------------------
     NACORE =        0  NBCORE   =        0
     NSTATE =        5  IROOT    =        1
     HAMTYP = SAPS      SAP MULT =        1
     DIAGZN = DAVID     MXVEC    =       40
     NDAVIT =       50  DAVCVG   = 1.00E-05
     CISPRP =        F  NGSVEC   =       10
     MNMEDG =        F  MNMEOP   =        F
     CHFSLV = CONJG     RDCISV   =        F
     DGAPRX =        T

     NUMBER OF CORE -A-  ORBITALS =     0
     NUMBER OF CORE -B-  ORBITALS =     0
     NUMBER OF OCC. -A-  ORBITALS =     1
     NUMBER OF OCC. -B-  ORBITALS =     1
     NUMBER OF MOLECULAR ORBITALS =    10
     NUMBER OF   BASIS  FUNCTIONS =    10


     ------------------------------------------
     THE POINT GROUP IS C1 , NAXIS= 0, ORDER= 1
     ------------------------------------------

 -- VARIATIONAL SPACE WILL BE RESTRICTED TO PURE SPHERICAL HARMONICS ONLY --
 AFTER EXCLUDING CONTAMINANT COMBINATIONS FROM THE CARTESIAN GAUSSIAN BASIS
 SET, THE NUMBER OF SPHERICAL HARMONICS KEPT IN THE VARIATION SPACE IS   10

     DIMENSIONS OF THE SYMMETRY SUBSPACES ARE
 A   =   10

 ..... DONE SETTING UP THE RUN .....
 CPU     0: STEP CPU TIME=     0.02 TOTAL CPU TIME=        0.0 (    0.0 MIN)
 TOTAL WALL CLOCK TIME=        0.0 SECONDS, CPU UTILIZATION IS  50.00%

          ********************
          1 ELECTRON INTEGRALS
          ********************
 ...... END OF ONE-ELECTRON INTEGRALS ......
 CPU     0: STEP CPU TIME=     0.00 TOTAL CPU TIME=        0.0 (    0.0 MIN)
 TOTAL WALL CLOCK TIME=        0.2 SECONDS, CPU UTILIZATION IS  13.33%

          -------------
          GUESS OPTIONS
          -------------
          GUESS =HUCKEL            NORB  =       0          NORDER=       0
          MIX   =       F          PRTMO =       F          PUNMO =       F
          TOLZ  = 1.0E-08          TOLE  = 1.0E-05
          SYMDEN=       F          PURIFY=       F

 INITIAL GUESS ORBITALS GENERATED BY HUCKEL   ROUTINE.
 HUCKEL GUESS REQUIRES      2162 WORDS.

 SYMMETRIES FOR INITIAL GUESS ORBITALS FOLLOW.   BOTH SET(S).
     1 ORBITALS ARE OCCUPIED (    0 CORE ORBITALS).
     1=A        2=A        3=A        4=A        5=A        6=A        7=A   
     8=A        9=A       10=A   
 ...... END OF INITIAL ORBITAL SELECTION ......
 CPU     0: STEP CPU TIME=     0.00 TOTAL CPU TIME=        0.0 (    0.0 MIN)
 TOTAL WALL CLOCK TIME=        0.2 SECONDS, CPU UTILIZATION IS  10.00%

                    ----------------------
                    AO INTEGRAL TECHNOLOGY
                    ----------------------
     S,P,L SHELL ROTATED AXIS INTEGRALS, REPROGRAMMED BY
        KAZUYA ISHIMURA (IMS) AND JOSE SIERRA (SYNSTAR).
     S,P,D,L SHELL ROTATED AXIS INTEGRALS PROGRAMMED BY
        KAZUYA ISHIMURA (INSTITUTE FOR MOLECULAR SCIENCE).
     S,P,D,F,G SHELL TO TOTAL QUARTET ANGULAR MOMENTUM SUM 5,
        ERIC PROGRAM BY GRAHAM FLETCHER (ELORET AND NASA ADVANCED
        SUPERCOMPUTING DIVISION, AMES RESEARCH CENTER).
     S,P,D,F,G,L SHELL GENERAL RYS QUADRATURE PROGRAMMED BY
        MICHEL DUPUIS (PACIFIC NORTHWEST NATIONAL LABORATORY).

          --------------------
          2 ELECTRON INTEGRALS
          --------------------

 THE -PK- OPTION IS OFF, THE INTEGRALS ARE NOT IN SUPERMATRIX FORM.
 STORING   15000 INTEGRALS/RECORD ON DISK, USING 12 BYTES/INTEGRAL.
 TWO ELECTRON INTEGRAL EVALUATION REQUIRES   89377 WORDS OF MEMORY.
 II,JST,KST,LST =  1  1  1  1 NREC =         1 INTLOC =    1
 II,JST,KST,LST =  2  1  1  1 NREC =         1 INTLOC =    1
 II,JST,KST,LST =  3  1  1  1 NREC =         1 INTLOC =    5
 II,JST,KST,LST =  4  1  1  1 NREC =         1 INTLOC =    5
 II,JST,KST,LST =  5  1  1  1 NREC =         1 INTLOC =   25
 II,JST,KST,LST =  6  1  1  1 NREC =         1 INTLOC =   25
 TOTAL NUMBER OF NONZERO TWO-ELECTRON INTEGRALS =                 512
         16 INTEGRAL RECORDS WERE STORED ON DISK FILE  8.
  ...... END OF TWO-ELECTRON INTEGRALS .....
 CPU     0: STEP CPU TIME=     0.02 TOTAL CPU TIME=        0.0 (    0.0 MIN)
 TOTAL WALL CLOCK TIME=        0.3 SECONDS, CPU UTILIZATION IS  15.38%

          --------------------------
                 RHF SCF CALCULATION
          --------------------------

     NUCLEAR ENERGY =         0.5263157895
     MAXIT =   30     NPUNCH=    2
     EXTRAP=T  DAMP=F  SHIFT=F  RSTRCT=F  DIIS=F  DEM=F  SOSCF=T
     DENSITY MATRIX CONV=  1.00E-06
     SOSCF WILL OPTIMIZE       9 ORBITAL ROTATIONS, SOGTOL=   0.250
     MEMORY REQUIRED FOR RHF ITERS=     30876 WORDS.

 ITER EX DEM     TOTAL ENERGY        E CHANGE  DENSITY CHANGE     ORB. GRAD
   1  0  0       -1.0671463582    -1.0671463582   0.150382729   0.000000000
          ---------------START SECOND ORDER SCF---------------
   2  1  0       -1.0978781388    -0.0307317806   0.028051063   0.020278422
   3  2  0       -1.0991288601    -0.0012507214   0.006178202   0.003674695
   4  3  0       -1.0991730477    -0.0000441876   0.000034156   0.000037683
   5  4  0       -1.0991730520    -0.0000000043   0.000002039   0.000007471
   6  5  0       -1.0991730521    -0.0000000001   0.000000081   0.000000091
   7  6  0       -1.0991730521    -0.0000000000   0.000000000   0.000000001

          -----------------
          DENSITY CONVERGED
          -----------------
     TIME TO FORM FOCK OPERATORS=       0.0 SECONDS (       0.0 SEC/ITER)
     TIME TO SOLVE SCF EQUATIONS=       0.0 SECONDS (       0.0 SEC/ITER)

 FINAL RHF ENERGY IS       -1.0991730521 AFTER   7 ITERATIONS

 LZ VALUE ANALYSIS FOR THE MOS
 ----------------------------------------
 MO     1 (    1) HAS LZ(WEIGHT)= 0.00(100.0%) 
 MO     2 (    2) HAS LZ(WEIGHT)= 0.00(100.0%) 
 MO     3 (    3) HAS LZ(WEIGHT)= 0.00(100.0%) 
 MO     4 (    4) HAS LZ(WEIGHT)= 0.00(100.0%) 
 MO     5 (    5) HAS LZ(WEIGHT)= 0.00(100.0%) 
 MO     6 (    5) HAS LZ(WEIGHT)= 0.00(100.0%) 
 MO     7 (    6) HAS LZ(WEIGHT)= 0.00(100.0%) 
 MO     8 (    7) HAS LZ(WEIGHT)= 0.00(100.0%) 
 MO     9 (    7) HAS LZ(WEIGHT)= 0.00(100.0%) 
 MO    10 (    8) HAS LZ(WEIGHT)= 0.00(100.0%) 

          ------------
          EIGENVECTORS
          ------------

                      1          2          3          4          5
                   -0.5238     0.1424     0.5408     0.7926     1.2875
                     A          A          A          A          A   
    1  H  1  S    0.374514  -0.202981   0.779704   0.952906   0.000000
    2  H  1  S    0.231316  -1.352431  -0.736382  -1.465565   0.000000
    3  H  1  X    0.021152   0.000976   0.058917  -0.199678   0.000000
    4  H  1  Y    0.000000   0.000000   0.000000   0.000000   0.601366
    5  H  1  Z    0.000000   0.000000   0.000000   0.000000   0.179730
    6  H  2  S    0.374514   0.202981   0.779704  -0.952906   0.000000
    7  H  2  S    0.231316   1.352431  -0.736382   1.465565   0.000000
    8  H  2  X   -0.021152   0.000976  -0.058917  -0.199678   0.000000
    9  H  2  Y    0.000000   0.000000   0.000000   0.000000   0.601366
   10  H  2  Z    0.000000   0.000000   0.000000   0.000000   0.179730

                      6          7          8          9         10
                    1.2875     1.6732     1.8681     1.8681     2.7260
                     A          A          A          A          A   
    1  H  1  S    0.000000   0.395872   0.000000   0.000000   0.915526
    2  H  1  S    0.000000  -0.196249   0.000000   0.000000   0.324567
    3  H  1  X    0.000000  -0.624553   0.000000   0.000000   1.380053
    4  H  1  Y   -0.179730   0.000000  -0.508334   0.652530   0.000000
    5  H  1  Z    0.601366   0.000000   0.652530   0.508334   0.000000
    6  H  2  S    0.000000   0.395872   0.000000   0.000000  -0.915526
    7  H  2  S    0.000000  -0.196249   0.000000   0.000000  -0.324567
    8  H  2  X    0.000000   0.624553   0.000000   0.000000   1.380053
    9  H  2  Y   -0.179730   0.000000   0.508334  -0.652530   0.000000
   10  H  2  Z    0.601366   0.000000  -0.652530  -0.508334   0.000000
 ...... END OF RHF CALCULATION ......
 CPU     0: STEP CPU TIME=     0.00 TOTAL CPU TIME=        0.0 (    0.0 MIN)
 TOTAL WALL CLOCK TIME=        0.9 SECONDS, CPU UTILIZATION IS   4.55%

     ----------------------------------------------------------------
     PROPERTY VALUES FOR THE RHF   SELF-CONSISTENT FIELD WAVEFUNCTION
     ----------------------------------------------------------------

          -----------------
          ENERGY COMPONENTS
          -----------------

         WAVEFUNCTION NORMALIZATION =       1.0000000000

                ONE ELECTRON ENERGY =      -2.2032928155
                TWO ELECTRON ENERGY =       0.5778039739
           NUCLEAR REPULSION ENERGY =       0.5263157895
                                      ------------------
                       TOTAL ENERGY =      -1.0991730521

 ELECTRON-ELECTRON POTENTIAL ENERGY =       0.5778039739
  NUCLEUS-ELECTRON POTENTIAL ENERGY =      -3.1100463210
   NUCLEUS-NUCLEUS POTENTIAL ENERGY =       0.5263157895
                                      ------------------
             TOTAL POTENTIAL ENERGY =      -2.0059265575
               TOTAL KINETIC ENERGY =       0.9067535055
                 VIRIAL RATIO (V/T) =       2.2122071163

  ...... PI ENERGY ANALYSIS ......

 ENERGY ANALYSIS:
            FOCK ENERGY=     -1.0476848670
          BARE H ENERGY=     -2.2032928155
     ELECTRONIC ENERGY =     -1.6254888413
         KINETIC ENERGY=      0.9067535055
          N-N REPULSION=      0.5263157895
           TOTAL ENERGY=     -1.0991730518
        SIGMA PART(1+2)=     -1.6254888413
               (K,V1,2)=      0.9067535055     -3.1100463210      0.5778039742
           PI PART(1+2)=      0.0000000000
               (K,V1,2)=      0.0000000000      0.0000000000      0.0000000000
  SIGMA SKELETON, ERROR=     -1.0991730518      0.0000000000
             MIXED PART= 0.00000E+00 0.00000E+00 0.00000E+00 0.00000E+00
 ...... END OF PI ENERGY ANALYSIS ......

          ---------------------------------------
          MULLIKEN AND LOWDIN POPULATION ANALYSES
          ---------------------------------------

               ----- POPULATIONS IN EACH AO -----
                             MULLIKEN      LOWDIN
              1  H  1  S      0.59344     0.52144
              2  H  1  S      0.39671     0.45765
              3  H  1  X      0.00985     0.02091
              4  H  1  Y      0.00000     0.00000
              5  H  1  Z      0.00000     0.00000
              6  H  2  S      0.59344     0.52144
              7  H  2  S      0.39671     0.45765
              8  H  2  X      0.00985     0.02091
              9  H  2  Y      0.00000     0.00000
             10  H  2  Z      0.00000     0.00000

          ----- MULLIKEN ATOMIC OVERLAP POPULATIONS -----
          (OFF-DIAGONAL ELEMENTS NEED TO BE MULTIPLIED BY 2)

             1           2

    1    0.6257504
    2    0.3742496   0.6257504

          TOTAL MULLIKEN AND LOWDIN ATOMIC POPULATIONS
       ATOM         MULL.POP.    CHARGE          LOW.POP.     CHARGE
    1 H             1.000000    0.000000         1.000000    0.000000
    2 H             1.000000    0.000000         1.000000    0.000000

          MULLIKEN SPHERICAL HARMONIC POPULATIONS
       ATOM           S       P       D      F      G      H      I    TOTAL
    1 H             0.99    0.01    0.00   0.00   0.00   0.00   0.00    1.00
    2 H             0.99    0.01    0.00   0.00   0.00   0.00   0.00    1.00

          ---------------------
          ELECTROSTATIC MOMENTS
          ---------------------

 POINT   1           X           Y           Z (BOHR)    CHARGE
                 0.950000    0.000000    0.000000        0.00 (A.U.)
         DX          DY          DZ         /D/  (DEBYE)
    -0.000000    0.000000    0.000000    0.000000
 ...... END OF PROPERTY EVALUATION ......
 CPU     0: STEP CPU TIME=     0.00 TOTAL CPU TIME=        0.0 (    0.0 MIN)
 TOTAL WALL CLOCK TIME=        1.0 SECONDS, CPU UTILIZATION IS   4.17%

 MXVEC CANNOT BE BIGGER THAN THE NUMBER OF CIS CONFIGS
 SETTING MXVEC = NCFG


          ---------------------------------------------
             ATOMIC ORBITAL BASIS CI-SINGLES ENERGY
             PROGRAM WRITTEN BY SIMON P. WEBB
          ---------------------------------------------

 # CORE ORBITALS      =    0
 # OCCUPIED ORBITALS  =    1
 # MOLECULAR ORBITALS =   10
 # BASIS FUNCTIONS    =   10

 NUMBER OF CIS SPIN-ADAPTED ANTISYMMETRIZED PRODUCTS (SAPS) IS       9

 APPROXIMATING CIS HAMILTONIAN DIAGONAL ELEMENTS USING ONLY ORBITAL ENERGIES

 -CIS- HAM. DIAGONAL ELEMENTS  TOOK      0.000 SECONDS

 MIN MEMORY REQ. FOR CIS ENERGY FOCK-LIKE BUILDS =       200 WORDS
 MEMORY REQ. FOR SINGLE BATCH BUILDS             =      1800 WORDS
 MEMORY AVAILABLE                                =    968641 WORDS

 SINGLE BATCH ENERGY CALCULATION WILL BE PERFORMED

 UNIT VECTOR GUESS AT CIS COEFFICIENTS ...

 USING IN MEMORY DIAGONALIZTION TO FIND CIS EIGENVALUES AND EIGENVECTORS ...

 STATE    1 ENERGY=       -0.6671838097
 STATE    2 ENERGY=       -0.3099982886
 STATE    3 ENERGY=       -0.0883226497
 STATE    4 ENERGY=        0.3334236036
 STATE    5 ENERGY=        0.3334236036


        --------------------------------------------------------
        RESULTS FROM SPIN-ADAPTED ANTISYMMETRIZED PRODUCT (SAPS)
        BASED ATOMIC ORBITAL CI-SINGLES ENERGY CALCULATION
        --------------------------------------------------------

 PRINTING CIS COEFFICIENTS LARGER THAN  0.050000

 RHF REFERENCE ENERGY  =        -1.0991730521


 EXCITED STATE   1  ENERGY=        -0.6671838097  S = 0.0  SPACE SYM = A   

          ----------------------------------------------
          SINGLE EXCITATION               SAP COEFFICENT
          FROM MO     TO MO
          ----------------------------------------------
             1          2                   0.99973296
          ----------------------------------------------


 EXCITED STATE   2  ENERGY=        -0.3099982886  S = 0.0  SPACE SYM = A   

          ----------------------------------------------
          SINGLE EXCITATION               SAP COEFFICENT
          FROM MO     TO MO
          ----------------------------------------------
             1          3                  -0.99996943
          ----------------------------------------------


 EXCITED STATE   3  ENERGY=        -0.0883226497  S = 0.0  SPACE SYM = A   

          ----------------------------------------------
          SINGLE EXCITATION               SAP COEFFICENT
          FROM MO     TO MO
          ----------------------------------------------
             1          4                   0.99966744
          ----------------------------------------------


 EXCITED STATE   4  ENERGY=         0.3334236036  S = 0.0  SPACE SYM = A   

          ----------------------------------------------
          SINGLE EXCITATION               SAP COEFFICENT
          FROM MO     TO MO
          ----------------------------------------------
             1          5                   0.99900542
          ----------------------------------------------


 EXCITED STATE   5  ENERGY=         0.3334236036  S = 0.0  SPACE SYM = A   

          ----------------------------------------------
          SINGLE EXCITATION               SAP COEFFICENT
          FROM MO     TO MO
          ----------------------------------------------
             1          6                   0.99900542
          ----------------------------------------------

  ---------------------------------------------------------------------
                    CI-SINGLES EXCITATION ENERGIES
  STATE       HARTREE        EV      KCAL/MOL       CM-1         NM
  ---------------------------------------------------------------------
   1A     0.4319892424    11.7550    271.0774      94810.68     105.47
   1A     0.7891747635    21.4745    495.2147     173203.84      57.74
   1A     1.0108504024    27.5066    634.3183     221856.02      45.07
   1A     1.4325966557    38.9829    898.9681     314418.62      31.80
   1A     1.4325966557    38.9829    898.9681     314418.62      31.80

 -CIS- ENERGY                  TOOK      0.000 SECONDS

  ---------------------------------------------------------------------
                    CIS TRANSITION DIPOLE MOMENTS AND
                    EXPECTATION VALUES OF DIPOLE MOMENTS
  ---------------------------------------------------------------------

 GROUND STATE (SCF) DIPOLE=    -0.000000     0.000000     0.000000 DEBYE

 TRANSITION FROM THE GROUND STATE TO EXCITED STATE  1

 STATE MULTIPLICITIES =   1  1
 STATE ENERGIES =         -1.0991730521       -0.6671838097
 EXCITATION ENERGY =  2.8424E+15 [1/SEC] =    94810.68 [1/CM] =     11.76 [EV]
                            X           Y           Z           NORM
 TRANSITION DIPOLE =    1.668018    0.000000   -0.000000    1.668018 E*BOHR
 TRANSITION DIPOLE =    4.239711    0.000000   -0.000000    4.239711 DEBYE
 OSCILLATOR STRENGTH =    0.801278
 EINSTEIN COEFFICIENTS: A=  4.8045E+09 1/SEC; B=  1.1292E+09 SEC/G

 TRANSITION FROM THE GROUND STATE TO EXCITED STATE  2

 STATE MULTIPLICITIES =   1  1
 STATE ENERGIES =         -1.0991730521       -0.3099982886
 EXCITATION ENERGY =  5.1925E+15 [1/SEC] =   173203.84 [1/CM] =     21.47 [EV]
                            X           Y           Z           NORM
 TRANSITION DIPOLE =   -0.000000    0.000000   -0.000000    0.000000 E*BOHR
 TRANSITION DIPOLE =   -0.000000    0.000000   -0.000000    0.000000 DEBYE
 OSCILLATOR STRENGTH =    0.000000
 EINSTEIN COEFFICIENTS: A=  2.6828E-21 1/SEC; B=  1.0342E-22 SEC/G

 TRANSITION FROM THE GROUND STATE TO EXCITED STATE  3

 STATE MULTIPLICITIES =   1  1
 STATE ENERGIES =         -1.0991730521       -0.0883226497
 EXCITATION ENERGY =  6.6511E+15 [1/SEC] =   221856.02 [1/CM] =     27.51 [EV]
                            X           Y           Z           NORM
 TRANSITION DIPOLE =   -0.352906    0.000000    0.000000    0.352906 E*BOHR
 TRANSITION DIPOLE =   -0.897006    0.000000    0.000000    0.897006 DEBYE
 OSCILLATOR STRENGTH =    0.083930
 EINSTEIN COEFFICIENTS: A=  2.7555E+09 1/SEC; B=  5.0545E+07 SEC/G

 TRANSITION FROM THE GROUND STATE TO EXCITED STATE  4

 STATE MULTIPLICITIES =   1  1
 STATE ENERGIES =         -1.0991730521        0.3334236036
 EXCITATION ENERGY =  9.4260E+15 [1/SEC] =   314418.62 [1/CM] =     38.98 [EV]
                            X           Y           Z           NORM
 TRANSITION DIPOLE =   -0.000000    0.952107    0.238874    0.981615 E*BOHR
 TRANSITION DIPOLE =   -0.000000    2.420032    0.607162    2.495035 DEBYE
 OSCILLATOR STRENGTH =    0.920269
 EINSTEIN COEFFICIENTS: A=  6.0685E+10 1/SEC; B=  3.9106E+08 SEC/G

 TRANSITION FROM THE GROUND STATE TO EXCITED STATE  5

 STATE MULTIPLICITIES =   1  1
 STATE ENERGIES =         -1.0991730521        0.3334236036
 EXCITATION ENERGY =  9.4260E+15 [1/SEC] =   314418.62 [1/CM] =     38.98 [EV]
                            X           Y           Z           NORM
 TRANSITION DIPOLE =    0.000000   -0.238874    0.952107    0.981615 E*BOHR
 TRANSITION DIPOLE =    0.000000   -0.607162    2.420032    2.495035 DEBYE
 OSCILLATOR STRENGTH =    0.920269
 EINSTEIN COEFFICIENTS: A=  6.0685E+10 1/SEC; B=  3.9106E+08 SEC/G

 EXPECTATION VALUE DIPOLE MOMENT FOR EXCITED STATE  1

 STATE MULTIPLICITY =   1
 STATE ENERGY =         -0.6671838097
                            X           Y           Z           NORM
      STATE DIPOLE =    0.000000    0.000000   -0.000000    0.000000 E*BOHR
      STATE DIPOLE =    0.000000    0.000000   -0.000000    0.000000 DEBYE

 TRANSITION BETWEEN EXCITED STATES   1 AND  2

 STATE MULTIPLICITIES=  1  1
 STATE ENERGIES =         -0.6671838097       -0.3099982886
 TRANSITION ENERGY =  2.3502E+15 [1/SEC] =    78393.16 [1/CM] =        9.72 [EV]
                            X           Y           Z           NORM
 TRANSITION DIPOLE =    1.162910   -0.000000    0.000000    1.162910 E*BOHR
 TRANSITION DIPOLE =    2.955846   -0.000000    0.000000    2.955846 DEBYE
 OSCILLATOR STRENGTH =    0.322029
 EINSTEIN COEFFICIENTS: A=  1.3201E+09 1/SEC; B=  5.4884E+08 SEC/G

 TRANSITION BETWEEN EXCITED STATES   1 AND  3

 STATE MULTIPLICITIES=  1  1
 STATE ENERGIES =         -0.6671838097       -0.0883226497
 TRANSITION ENERGY =  3.8087E+15 [1/SEC] =   127045.34 [1/CM] =       15.75 [EV]
                            X           Y           Z           NORM
 TRANSITION DIPOLE =    0.000000    0.000000   -0.000000    0.000000 E*BOHR
 TRANSITION DIPOLE =    0.000000    0.000000   -0.000000    0.000000 DEBYE
 OSCILLATOR STRENGTH =    0.000000
 EINSTEIN COEFFICIENTS: A=  2.9874E-21 1/SEC; B=  2.9182E-22 SEC/G

 TRANSITION BETWEEN EXCITED STATES   1 AND  4

 STATE MULTIPLICITIES=  1  1
 STATE ENERGIES =         -0.6671838097        0.3334236036
 TRANSITION ENERGY =  6.5837E+15 [1/SEC] =   219607.94 [1/CM] =       27.23 [EV]
                            X           Y           Z           NORM
 TRANSITION DIPOLE =   -0.000000   -0.000000    0.000000    0.000000 E*BOHR
 TRANSITION DIPOLE =   -0.000000   -0.000000    0.000000    0.000000 DEBYE
 OSCILLATOR STRENGTH =    0.000000
 EINSTEIN COEFFICIENTS: A=  4.6893E-20 1/SEC; B=  8.8685E-22 SEC/G

 TRANSITION BETWEEN EXCITED STATES   1 AND  5

 STATE MULTIPLICITIES=  1  1
 STATE ENERGIES =         -0.6671838097        0.3334236036
 TRANSITION ENERGY =  6.5837E+15 [1/SEC] =   219607.94 [1/CM] =       27.23 [EV]
                            X           Y           Z           NORM
 TRANSITION DIPOLE =    0.000000   -0.000000   -0.000000    0.000000 E*BOHR
 TRANSITION DIPOLE =    0.000000   -0.000000   -0.000000    0.000000 DEBYE
 OSCILLATOR STRENGTH =    0.000000
 EINSTEIN COEFFICIENTS: A=  4.2998E-20 1/SEC; B=  8.1318E-22 SEC/G

 EXPECTATION VALUE DIPOLE MOMENT FOR EXCITED STATE  2

 STATE MULTIPLICITY =   1
 STATE ENERGY =         -0.3099982886
                            X           Y           Z           NORM
      STATE DIPOLE =    0.000000   -0.000000    0.000000    0.000000 E*BOHR
      STATE DIPOLE =    0.000000   -0.000000    0.000000    0.000000 DEBYE

 TRANSITION BETWEEN EXCITED STATES   2 AND  3

 STATE MULTIPLICITIES=  1  1
 STATE ENERGIES =         -0.3099982886       -0.0883226497
 TRANSITION ENERGY =  1.4586E+15 [1/SEC] =    48652.18 [1/CM] =        6.03 [EV]
                            X           Y           Z           NORM
 TRANSITION DIPOLE =    1.257933    0.000000   -0.000000    1.257933 E*BOHR
 TRANSITION DIPOLE =    3.197372    0.000000   -0.000000    3.197372 DEBYE
 OSCILLATOR STRENGTH =    0.233852
 EINSTEIN COEFFICIENTS: A=  3.6923E+08 1/SEC; B=  6.4220E+08 SEC/G

 TRANSITION BETWEEN EXCITED STATES   2 AND  4

 STATE MULTIPLICITIES=  1  1
 STATE ENERGIES =         -0.3099982886        0.3334236036
 TRANSITION ENERGY =  4.2335E+15 [1/SEC] =   141214.78 [1/CM] =       17.51 [EV]
                            X           Y           Z           NORM
 TRANSITION DIPOLE =    0.000000    0.069292    0.017385    0.071440 E*BOHR
 TRANSITION DIPOLE =    0.000000    0.176125    0.044188    0.181584 DEBYE
 OSCILLATOR STRENGTH =    0.002189
 EINSTEIN COEFFICIENTS: A=  2.9120E+07 1/SEC; B=  2.0713E+06 SEC/G

 TRANSITION BETWEEN EXCITED STATES   2 AND  5

 STATE MULTIPLICITIES=  1  1
 STATE ENERGIES =         -0.3099982886        0.3334236036
 TRANSITION ENERGY =  4.2335E+15 [1/SEC] =   141214.78 [1/CM] =       17.51 [EV]
                            X           Y           Z           NORM
 TRANSITION DIPOLE =    0.000000   -0.017385    0.069292    0.071440 E*BOHR
 TRANSITION DIPOLE =    0.000000   -0.044188    0.176125    0.181584 DEBYE
 OSCILLATOR STRENGTH =    0.002189
 EINSTEIN COEFFICIENTS: A=  2.9120E+07 1/SEC; B=  2.0713E+06 SEC/G

 EXPECTATION VALUE DIPOLE MOMENT FOR EXCITED STATE  3

 STATE MULTIPLICITY =   1
 STATE ENERGY =         -0.0883226497
                            X           Y           Z           NORM
      STATE DIPOLE =   -0.000000    0.000000   -0.000000    0.000000 E*BOHR
      STATE DIPOLE =   -0.000000    0.000000   -0.000000    0.000000 DEBYE

 TRANSITION BETWEEN EXCITED STATES   3 AND  4

 STATE MULTIPLICITIES=  1  1
 STATE ENERGIES =         -0.0883226497        0.3334236036
 TRANSITION ENERGY =  2.7750E+15 [1/SEC] =    92562.60 [1/CM] =       11.48 [EV]
                            X           Y           Z           NORM
 TRANSITION DIPOLE =    0.000000   -0.000000   -0.000000    0.000000 E*BOHR
 TRANSITION DIPOLE =    0.000000   -0.000000   -0.000000    0.000000 DEBYE
 OSCILLATOR STRENGTH =    0.000000
 EINSTEIN COEFFICIENTS: A=  7.3766E-22 1/SEC; B=  1.8631E-22 SEC/G

 TRANSITION BETWEEN EXCITED STATES   3 AND  5

 STATE MULTIPLICITIES=  1  1
 STATE ENERGIES =         -0.0883226497        0.3334236036
 TRANSITION ENERGY =  2.7750E+15 [1/SEC] =    92562.60 [1/CM] =       11.48 [EV]
                            X           Y           Z           NORM
 TRANSITION DIPOLE =    0.000000    0.000000   -0.000000    0.000000 E*BOHR
 TRANSITION DIPOLE =    0.000000    0.000000   -0.000000    0.000000 DEBYE
 OSCILLATOR STRENGTH =    0.000000
 EINSTEIN COEFFICIENTS: A=  1.3503E-21 1/SEC; B=  3.4105E-22 SEC/G

 EXPECTATION VALUE DIPOLE MOMENT FOR EXCITED STATE  4

 STATE MULTIPLICITY =   1
 STATE ENERGY =          0.3334236036
                            X           Y           Z           NORM
      STATE DIPOLE =    0.000000    0.000000    0.000000    0.000000 E*BOHR
      STATE DIPOLE =    0.000000    0.000000    0.000000    0.000000 DEBYE

 TRANSITION BETWEEN EXCITED STATES   4 AND  5

 STATE MULTIPLICITIES=  1  1
 STATE ENERGIES =          0.3334236036        0.3334236036
 TRANSITION ENERGY =  7.3049E+00 [1/SEC] =        0.00 [1/CM] =        0.00 [EV]
                            X           Y           Z           NORM
 TRANSITION DIPOLE =   -0.000000    0.000000    0.000000    0.000000 E*BOHR
 TRANSITION DIPOLE =   -0.000000    0.000000    0.000000    0.000000 DEBYE
 OSCILLATOR STRENGTH =    0.000000
 EINSTEIN COEFFICIENTS: A=  8.3005E-67 1/SEC; B=  1.1492E-23 SEC/G

 EXPECTATION VALUE DIPOLE MOMENT FOR EXCITED STATE  5

 STATE MULTIPLICITY =   1
 STATE ENERGY =          0.3334236036
                            X           Y           Z           NORM
      STATE DIPOLE =   -0.000000    0.000000   -0.000000    0.000000 E*BOHR
      STATE DIPOLE =   -0.000000    0.000000   -0.000000    0.000000 DEBYE

 CIS NATURAL ORBITAL OCCUPATION NUMBERS FOR EXCITED STATE    1 ARE
  1.0000 1.0000 0.0000 0.0000 0.0000 0.0000 0.0000-0.0000-0.0000-0.0000
 THERE ARE     1.0000 ELECTRONS IN PRINCIPAL CIS NATURAL ORBITALS.
 THERE ARE     1.0000 ELECTRONS IN SECONDARY CIS NATURAL ORBITALS.

          --------------------
          CIS NATURAL ORBITALS
          --------------------

                      1          2          3          4          5

                    1.0000     1.0000     0.0000     0.0000     0.0000

    1  H  1  S    0.178238   0.374514   0.000000   0.000000   0.000000
    2  H  1  S    1.384606   0.231316   0.000000   0.000000   0.000000
    3  H  1  X   -0.000733   0.021152   0.000000   0.000000   0.000000
    4  H  1  Y    0.000000   0.000000  -0.179730  -0.601366  -0.521459
    5  H  1  Z    0.000000   0.000000   0.601366  -0.179730  -0.642089
    6  H  2  S   -0.178238   0.374514   0.000000   0.000000   0.000000
    7  H  2  S   -1.384606   0.231316   0.000000   0.000000   0.000000
    8  H  2  X   -0.000733  -0.021152   0.000000   0.000000   0.000000
    9  H  2  Y    0.000000   0.000000  -0.179730  -0.601366   0.521459
   10  H  2  Z    0.000000   0.000000   0.601366  -0.179730   0.642089

                      6          7          8          9         10

                    0.0000     0.0000    -0.0000    -0.0000    -0.0000

    1  H  1  S   -0.597434  -0.156173   1.200518   0.638533   0.538532
    2  H  1  S    0.624953   0.030880  -0.237380  -0.436126  -1.451846
    3  H  1  X   -0.268842  -0.154975   1.191305  -0.566800  -0.707950
    4  H  1  Y    0.000000  -0.636724  -0.082830   0.000000   0.000000
    5  H  1  Z    0.000000   0.517102   0.067269   0.000000   0.000000
    6  H  2  S   -0.597434   0.156173  -1.200518   0.638533  -0.538532
    7  H  2  S    0.624953  -0.030880   0.237380  -0.436126   1.451846
    8  H  2  X    0.268842  -0.154975   1.191305   0.566800  -0.707950
    9  H  2  Y    0.000000   0.636724   0.082830   0.000000   0.000000
   10  H  2  Z    0.000000  -0.517102  -0.067269   0.000000   0.000000

 THE CIS NATURAL ORBITALS HAVE BEEN PUNCHED.

 ..... DONE WITH CIS ENERGY .....

 CPU     0: STEP CPU TIME=     0.00 TOTAL CPU TIME=        0.0 (    0.0 MIN)
 TOTAL WALL CLOCK TIME=        1.3 SECONDS, CPU UTILIZATION IS   3.08%

     -------------------------------------------------------------
     CIS   PROPERTIES...FOR THE WAVEFUNCTION OF EXCITED STATE    1
                 USING THE EXPECTATION VALUE DENSITY
     -------------------------------------------------------------

          -----------------
          ENERGY COMPONENTS
          -----------------

         WAVEFUNCTION NORMALIZATION =       1.0000000000

                ONE ELECTRON ENERGY =      -1.6679765041
                TWO ELECTRON ENERGY =       0.4744769050
           NUCLEAR REPULSION ENERGY =       0.5263157895
                                      ------------------
                       TOTAL ENERGY =      -0.6671838097

 ELECTRON-ELECTRON POTENTIAL ENERGY =       0.4744769050
  NUCLEUS-ELECTRON POTENTIAL ENERGY =      -2.4910040335
   NUCLEUS-NUCLEUS POTENTIAL ENERGY =       0.5263157895
                                      ------------------
             TOTAL POTENTIAL ENERGY =      -1.4902113390
               TOTAL KINETIC ENERGY =       0.8230275294
                 VIRIAL RATIO (V/T) =       1.8106457996

          ---------------------------------------
          MULLIKEN AND LOWDIN POPULATION ANALYSES
          ---------------------------------------

               ----- POPULATIONS IN EACH AO -----
                             MULLIKEN      LOWDIN
              1  H  1  S      0.36705     0.37159
              2  H  1  S      0.62778     0.56100
              3  H  1  X      0.00517     0.06741
              4  H  1  Y      0.00000     0.00000
              5  H  1  Z      0.00000     0.00000
              6  H  2  S      0.36705     0.37159
              7  H  2  S      0.62778     0.56100
              8  H  2  X      0.00517     0.06741
              9  H  2  Y      0.00000     0.00000
             10  H  2  Z      0.00000     0.00000

          ----- MULLIKEN ATOMIC OVERLAP POPULATIONS -----
          (OFF-DIAGONAL ELEMENTS NEED TO BE MULTIPLIED BY 2)

             1           2

    1    2.5998110
    2   -1.5998110   2.5998110

          TOTAL MULLIKEN AND LOWDIN ATOMIC POPULATIONS
       ATOM         MULL.POP.    CHARGE          LOW.POP.     CHARGE
    1 H             1.000000   -0.000000         1.000000   -0.000000
    2 H             1.000000    0.000000         1.000000    0.000000

          MULLIKEN SPHERICAL HARMONIC POPULATIONS
       ATOM           S       P       D      F      G      H      I    TOTAL
    1 H             0.99    0.01    0.00   0.00   0.00   0.00   0.00    1.00
    2 H             0.99    0.01    0.00   0.00   0.00   0.00   0.00    1.00

          ---------------------
          ELECTROSTATIC MOMENTS
          ---------------------

 POINT   1           X           Y           Z (BOHR)    CHARGE
                 0.950000    0.000000    0.000000       -0.00 (A.U.)
         DX          DY          DZ         /D/  (DEBYE)
     0.000000    0.000000   -0.000000    0.000000
 ...... END OF PROPERTY EVALUATION ......
 CPU     0: STEP CPU TIME=     0.01 TOTAL CPU TIME=        0.0 (    0.0 MIN)
 TOTAL WALL CLOCK TIME=        1.4 SECONDS, CPU UTILIZATION IS   3.68%
                580000  WORDS OF DYNAMIC MEMORY USED
 EXECUTION OF GAMESS TERMINATED NORMALLY Mon Apr 17 23:10:47 2017
 DDI: 263640 bytes (0.3 MB / 0 MWords) used by master data server.

 ----------------------------------------
 CPU timing information for all processes
 ========================================
 0: 0.28 + 0.31 = 0.59
 1: 0.06 + 0.18 = 0.24
 2: 0.09 + 0.19 = 0.28
 3: 0.06 + 0.17 = 0.24
 4: 0.11 + 0.25 = 0.36
 5: 0.08 + 0.19 = 0.28
 6: 0.14 + 0.17 = 0.31
 7: 0.08 + 0.15 = 0.24
 8: 0.07 + 0.28 = 0.36
 9: 0.08 + 0.13 = 0.22
 10: 0.10 + 0.19 = 0.30
 11: 0.12 + 0.11 = 0.24
 12: 0.08 + 0.25 = 0.33
 13: 0.07 + 0.17 = 0.25
 14: 0.11 + 0.19 = 0.30
 15: 0.05 + 0.16 = 0.22
 ----------------------------------------
 ddikick.x: exited gracefully.
----- accounting info -----
Files used on the master node kylin.physics.illinois.edu were:
-rw-rw-r--. 1 yyang173 yyang173     331 Apr 17 23:10 /scr/yyang173/sep1.90-cis.F05
-rw-rw-r--. 1 yyang173 yyang173  180016 Apr 17 23:10 /scr/yyang173/sep1.90-cis.F08
-rw-rw-r--. 1 yyang173 yyang173  180016 Apr 17 23:10 /scr/yyang173/sep1.90-cis.F08.001
-rw-rw-r--. 1 yyang173 yyang173  180016 Apr 17 23:10 /scr/yyang173/sep1.90-cis.F08.002
-rw-rw-r--. 1 yyang173 yyang173  180016 Apr 17 23:10 /scr/yyang173/sep1.90-cis.F08.003
-rw-rw-r--. 1 yyang173 yyang173  180016 Apr 17 23:10 /scr/yyang173/sep1.90-cis.F08.004
-rw-rw-r--. 1 yyang173 yyang173  180016 Apr 17 23:10 /scr/yyang173/sep1.90-cis.F08.005
-rw-rw-r--. 1 yyang173 yyang173  180016 Apr 17 23:10 /scr/yyang173/sep1.90-cis.F08.006
-rw-rw-r--. 1 yyang173 yyang173  180016 Apr 17 23:10 /scr/yyang173/sep1.90-cis.F08.007
-rw-rw-r--. 1 yyang173 yyang173  180016 Apr 17 23:10 /scr/yyang173/sep1.90-cis.F08.008
-rw-rw-r--. 1 yyang173 yyang173  180016 Apr 17 23:10 /scr/yyang173/sep1.90-cis.F08.009
-rw-rw-r--. 1 yyang173 yyang173  180016 Apr 17 23:10 /scr/yyang173/sep1.90-cis.F08.010
-rw-rw-r--. 1 yyang173 yyang173  180016 Apr 17 23:10 /scr/yyang173/sep1.90-cis.F08.011
-rw-rw-r--. 1 yyang173 yyang173  180016 Apr 17 23:10 /scr/yyang173/sep1.90-cis.F08.012
-rw-rw-r--. 1 yyang173 yyang173  180016 Apr 17 23:10 /scr/yyang173/sep1.90-cis.F08.013
-rw-rw-r--. 1 yyang173 yyang173  180016 Apr 17 23:10 /scr/yyang173/sep1.90-cis.F08.014
-rw-rw-r--. 1 yyang173 yyang173  180016 Apr 17 23:10 /scr/yyang173/sep1.90-cis.F08.015
-rw-rw-r--. 1 yyang173 yyang173 1636000 Apr 17 23:10 /scr/yyang173/sep1.90-cis.F10
-rw-rw-r--. 1 yyang173 yyang173     400 Apr 17 23:10 /scr/yyang173/sep1.90-cis.F12
Mon Apr 17 23:10:51 CDT 2017
0.174u 0.053s 0:04.77 4.6%	0+0k 0+16io 0pf+0w
