----- GAMESS execution script 'rungms' -----
This job is running on host kylin.physics.illinois.edu
under operating system Linux at Wed Apr 12 18:21:11 CDT 2017
Available scratch disk space (Kbyte units) at beginning of the job is
Filesystem                    1K-blocks     Used Available Use% Mounted on
/dev/mapper/fedora_kylin-root 110123880 60480280  44601484  58% /
GAMESS temporary binary files will be written to /scr/yyang173
GAMESS supplementary output files will be written to /home/yyang173/Desktop/attempts/drag-node/hf_grid/cis/sep2.80
Copying input file sep2.80-cis.inp to your run's scratch directory...
 
Assuming a single but multicore node.
 

 Distributed Data Interface kickoff program.
 Initiating 16 compute processes on 1 nodes to run the following command:
 /opt/intel17/apps/gamess_2016R1/gamess.00.x sep2.80-cis 

          ******************************************************
          *         GAMESS VERSION = 18 AUG 2016 (R1)          *
          *             FROM IOWA STATE UNIVERSITY             *
          * M.W.SCHMIDT, K.K.BALDRIDGE, J.A.BOATZ, S.T.ELBERT, *
          *   M.S.GORDON, J.H.JENSEN, S.KOSEKI, N.MATSUNAGA,   *
          *          K.A.NGUYEN, S.J.SU, T.L.WINDUS,           *
          *       TOGETHER WITH M.DUPUIS, J.A.MONTGOMERY       *
          *         J.COMPUT.CHEM.  14, 1347-1363(1993)        *
          **************** 64 BIT INTEL VERSION ****************

  SINCE 1993, STUDENTS AND POSTDOCS WORKING AT IOWA STATE UNIVERSITY
  AND ALSO IN THEIR VARIOUS JOBS AFTER LEAVING ISU HAVE MADE IMPORTANT
  CONTRIBUTIONS TO THE CODE:
     IVANA ADAMOVIC, CHRISTINE AIKENS, YURI ALEXEEV, POOJA ARORA,
     ANDREY ASADCHEV, ROB BELL, PRADIPTA BANDYOPADHYAY, JONATHAN BENTZ,
     BRETT BODE, KURT BRORSEN, CALEB CARLIN, GALINA CHABAN, WEI CHEN,
     CHEOL HO CHOI, PAUL DAY, ALBERT DEFUSCO, NUWAN DESILVA, TIM DUDLEY,
     DMITRI FEDOROV, GRAHAM FLETCHER, MARK FREITAG, KURT GLAESEMANN,
     DAN KEMP, GRANT MERRILL, NORIYUKI MINEZAWA, JONATHAN MULLIN,
     TAKESHI NAGATA, SEAN NEDD, HEATHER NETZLOFF, BOSILJKA NJEGIC, RYAN OLSON,
     MIKE PAK, SPENCER PRUITT, LUKE ROSKOP, JIM SHOEMAKER, LYUDMILA SLIPCHENKO,
     TONY SMITH, SAROM SOK LEANG, JIE SONG, TETSUYA TAKETSUGU, SIMON WEBB,
     PENG XU, SOOHAENG YOO, FEDERICO ZAHARIEV

  ADDITIONAL CODE HAS BEEN PROVIDED BY COLLABORATORS IN OTHER GROUPS:
     IOWA STATE UNIVERSITY:
          JOE IVANIC, AARON WEST, LAIMUTIS BYTAUTAS, KLAUS RUEDENBERG
     UNIVERSITY OF TOKYO: KIMIHIKO HIRAO, TAKAHITO NAKAJIMA,
          TAKAO TSUNEDA, MUNEAKI KAMIYA, SUSUMU YANAGISAWA,
          KIYOSHI YAGI, MAHITO CHIBA, SEIKEN TOKURA, NAOAKI KAWAKAMI
     UNIVERSITY OF AARHUS: FRANK JENSEN
     UNIVERSITY OF IOWA: VISVALDAS KAIRYS, HUI LI
     NATIONAL INST. OF STANDARDS AND TECHNOLOGY: WALT STEVENS, DAVID GARMER
     UNIVERSITY OF PISA: BENEDETTA MENNUCCI, JACOPO TOMASI
     UNIVERSITY OF MEMPHIS: HENRY KURTZ, PRAKASHAN KORAMBATH
     UNIVERSITY OF ALBERTA: TOBY ZENG, MARIUSZ KLOBUKOWSKI
     UNIVERSITY OF NEW ENGLAND: MARK SPACKMAN
     MIE UNIVERSITY: HIROAKI UMEDA
     NAT. INST. OF ADVANCED INDUSTRIAL SCIENCE AND TECHNOLOGY: KAZUO KITAURA
     MICHIGAN STATE UNIVERSITY:
          KAROL KOWALSKI, MARTA WLOCH, JEFFREY GOUR, JESSE LUTZ,
          WEI LI, PIOTR PIECUCH
     UNIVERSITY OF SILESIA: MONIKA MUSIAL, STANISLAW KUCHARSKI
     FACULTES UNIVERSITAIRES NOTRE-DAME DE LA PAIX:
          OLIVIER QUINET, BENOIT CHAMPAGNE
     UNIVERSITY OF CALIFORNIA - SANTA BARBARA: BERNARD KIRTMAN
     INSTITUTE FOR MOLECULAR SCIENCE:
          KAZUYA ISHIMURA, MICHIO KATOUDA, AND SHIGERU NAGASE
     UNIVERSITY OF NOTRE DAME: ANNA POMOGAEVA, DAN CHIPMAN
     KYUSHU UNIVERSITY:
          HARUYUKI NAKANO,
          FENG LONG GU, JACEK KORCHOWIEC, MARCIN MAKOWSKI, AND YURIKO AOKI,
          HIROTOSHI MORI AND EISAKU MIYOSHI
     PENNSYLVANIA STATE UNIVERSITY:
          TZVETELIN IORDANOV, CHET SWALINA, JONATHAN SKONE,
          SHARON HAMMES-SCHIFFER
     WASEDA UNIVERSITY:
          MASATO KOBAYASHI, TOMOKO AKAMA, TSUGUKI TOUMA,
          TAKESHI YOSHIKAWA, YASUHIRO IKABATA, JUNJI SEINO,
          YUYA NAKAJIMA, HIROMI NAKAI
     NANJING UNIVERSITY: SHUHUA LI
     UNIVERSITY OF NEBRASKA:
          PEIFENG SU, DEJUN SI, NANDUN THELLAMUREGE, YALI WANG, HUI LI
     UNIVERSITY OF ZURICH: ROBERTO PEVERATI, KIM BALDRIDGE
     N. COPERNICUS UNIVERSITY AND JACKSON STATE UNIVERSITY:
          MARIA BARYSZ
     UNIVERSITY OF COPENHAGEN: Jimmy Kromann, CASPER STEINMANN
     TOKYO INSTITUTE OF TECHNOLOGY: HIROYA NAKATA
     NAGOYA UNIVERSITY: YOSHIO NISHIMOTO, STEPHAN IRLE
     MOSCOW STATE UNIVERSITY: VLADIMIR MIRONOV


 PARALLEL VERSION RUNNING ON       16 PROCESSORS IN        1 NODES.

 EXECUTION OF GAMESS BEGUN Wed Apr 12 18:21:12 2017

            ECHO OF THE FIRST FEW INPUT CARDS -
 INPUT CARD> $contrl coord=unique icharg=0 ispher=1 mult=1 runtyp=energy                    
 INPUT CARD>         scftyp=rhf cityp=cis units=bohr  $end                                  
 INPUT CARD> $basis  gbasis=cct  $end                                                       
 INPUT CARD> $guess  guess=huckel  $end                                                     
 INPUT CARD> $cis    nstate=5 $end                                                          
 INPUT CARD> $DATA                                                                          
 INPUT CARD>A molecule.                                                                     
 INPUT CARD>C1                                                                              
 INPUT CARD>H 1.00       0.00000000       0.00000000       0.00000000                       
 INPUT CARD>H 1.00       2.800000000       0.00000000       0.00000000                      
 INPUT CARD> $END                                                                           
    1000000 WORDS OF MEMORY AVAILABLE

     BASIS OPTIONS
     -------------
     GBASIS=CCT          IGAUSS=       0      POLAR=NONE    
     NDFUNC=       0     NFFUNC=       0     DIFFSP=       F
     NPFUNC=       0      DIFFS=       F     BASNAM=        


     RUN TITLE
     ---------
 A molecule.                                                                     

 THE POINT GROUP OF THE MOLECULE IS C1      
 THE ORDER OF THE PRINCIPAL AXIS IS     0

 ATOM      ATOMIC                      COORDINATES (BOHR)
           CHARGE         X                   Y                   Z
 H           1.0     0.0000000000        0.0000000000        0.0000000000
 H           1.0     2.8000000000        0.0000000000        0.0000000000

          INTERNUCLEAR DISTANCES (ANGS.)
          ------------------------------

                1 H          2 H     

   1 H       0.0000000    1.4816963 *
   2 H       1.4816963 *  0.0000000  

  * ... LESS THAN  3.000


     ATOMIC BASIS SET
     ----------------
 THE CONTRACTED PRIMITIVE FUNCTIONS HAVE BEEN UNNORMALIZED
 THE CONTRACTED BASIS FUNCTIONS ARE NOW NORMALIZED TO UNITY

  SHELL TYPE  PRIMITIVE        EXPONENT          CONTRACTION COEFFICIENT(S)

 H         

      1   S       1            33.8700000    0.025494863235
      1   S       2             5.0950000    0.190362765893
      1   S       3             1.1590000    0.852162022245

      2   S       4             0.3258000    1.000000000000

      3   S       5             0.1027000    1.000000000000

      4   P       6             1.4070000    1.000000000000

      5   P       7             0.3880000    1.000000000000

      6   D       8             1.0570000    1.000000000000

 H         

      7   S       9            33.8700000    0.025494863235
      7   S      10             5.0950000    0.190362765893
      7   S      11             1.1590000    0.852162022245

      8   S      12             0.3258000    1.000000000000

      9   S      13             0.1027000    1.000000000000

     10   P      14             1.4070000    1.000000000000

     11   P      15             0.3880000    1.000000000000

     12   D      16             1.0570000    1.000000000000

 TOTAL NUMBER OF BASIS SET SHELLS             =   12
 NUMBER OF CARTESIAN GAUSSIAN BASIS FUNCTIONS =   30
 NOTE: THIS RUN WILL RESTRICT THE MO VARIATION SPACE TO SPHERICAL HARMONICS.
 THE NUMBER OF ORBITALS KEPT IN THE VARIATIONAL SPACE WILL BE PRINTED LATER.
 NUMBER OF ELECTRONS                          =    2
 CHARGE OF MOLECULE                           =    0
 SPIN MULTIPLICITY                            =    1
 NUMBER OF OCCUPIED ORBITALS (ALPHA)          =    1
 NUMBER OF OCCUPIED ORBITALS (BETA )          =    1
 TOTAL NUMBER OF ATOMS                        =    2
 THE NUCLEAR REPULSION ENERGY IS        0.3571428571

 THIS MOLECULE IS RECOGNIZED AS BEING LINEAR,
 ORBITAL LZ DEGENERACY TOLERANCE ETOLLZ= 1.00E-06

     $CONTRL OPTIONS
     ---------------
 SCFTYP=RHF          RUNTYP=ENERGY       EXETYP=RUN     
 MPLEVL=       0     CITYP =CIS          CCTYP =NONE         VBTYP =NONE    
 DFTTYP=NONE         TDDFT =NONE    
 MULT  =       1     ICHARG=       0     NZVAR =       0     COORD =UNIQUE  
 PP    =NONE         RELWFN=NONE         LOCAL =NONE         NUMGRD=       F
 ISPHER=       1     NOSYM =       0     MAXIT =      30     UNITS =BOHR    
 PLTORB=       F     MOLPLT=       F     AIMPAC=       F     FRIEND=        
 NPRINT=       7     IREST =       0     GEOM  =INPUT   
 NORMF =       0     NORMP =       0     ITOL  =      20     ICUT  =       9
 INTTYP=BEST         GRDTYP=BEST         QMTTOL= 1.0E-06

     $SYSTEM OPTIONS
     ---------------
  REPLICATED MEMORY=     1000000 WORDS (ON EVERY NODE).
 DISTRIBUTED MEMDDI=           0 MILLION WORDS IN AGGREGATE,
 MEMDDI DISTRIBUTED OVER  16 PROCESSORS IS           0 WORDS/PROCESSOR.
 TOTAL MEMORY REQUESTED ON EACH PROCESSOR=     1000000 WORDS.
 TIMLIM=      525600.00 MINUTES, OR     365.0 DAYS.
 PARALL= T  BALTYP=  DLB     KDIAG=    0  COREFL= F
 MXSEQ2=     300 MXSEQ3=     150  mem10=         0

          ----------------
          PROPERTIES INPUT
          ----------------

     MOMENTS            FIELD           POTENTIAL          DENSITY
 IEMOM =       1   IEFLD =       0   IEPOT =       0   IEDEN =       0
 WHERE =COMASS     WHERE =NUCLEI     WHERE =NUCLEI     WHERE =NUCLEI  
 OUTPUT=BOTH       OUTPUT=BOTH       OUTPUT=BOTH       OUTPUT=BOTH    
 IEMINT=       0   IEFINT=       0                     IEDINT=       0
                                                       MORB  =       0
          EXTRAPOLATION IN EFFECT
          SOSCF IN EFFECT
 ORBITAL PRINTING OPTION: NPREO=     1    30     2     1

     -------------------------------
     INTEGRAL TRANSFORMATION OPTIONS
     -------------------------------
     NWORD  =            0
     CUTOFF = 1.0E-09     MPTRAN =       0
     DIRTRF =       F     AOINTS =DUP     

          ----------------------
          INTEGRAL INPUT OPTIONS
          ----------------------
 NOPK  =       1 NORDER=       0 SCHWRZ=       F

     ------------------------------
     CI-SINGLES CONTROL INFORMATION
     ------------------------------
     NACORE =        0  NBCORE   =        0
     NSTATE =        5  IROOT    =        1
     HAMTYP = SAPS      SAP MULT =        1
     DIAGZN = DAVID     MXVEC    =       40
     NDAVIT =       50  DAVCVG   = 1.00E-05
     CISPRP =        F  NGSVEC   =       10
     MNMEDG =        F  MNMEOP   =        F
     CHFSLV = CONJG     RDCISV   =        F
     DGAPRX =        T

     NUMBER OF CORE -A-  ORBITALS =     0
     NUMBER OF CORE -B-  ORBITALS =     0
     NUMBER OF OCC. -A-  ORBITALS =     1
     NUMBER OF OCC. -B-  ORBITALS =     1
     NUMBER OF MOLECULAR ORBITALS =    30
     NUMBER OF   BASIS  FUNCTIONS =    30


     ------------------------------------------
     THE POINT GROUP IS C1 , NAXIS= 0, ORDER= 1
     ------------------------------------------

 -- VARIATIONAL SPACE WILL BE RESTRICTED TO PURE SPHERICAL HARMONICS ONLY --
 AFTER EXCLUDING CONTAMINANT COMBINATIONS FROM THE CARTESIAN GAUSSIAN BASIS
 SET, THE NUMBER OF SPHERICAL HARMONICS KEPT IN THE VARIATION SPACE IS   28

     DIMENSIONS OF THE SYMMETRY SUBSPACES ARE
 A   =   28

 ..... DONE SETTING UP THE RUN .....
 CPU     0: STEP CPU TIME=     0.02 TOTAL CPU TIME=        0.0 (    0.0 MIN)
 TOTAL WALL CLOCK TIME=        0.0 SECONDS, CPU UTILIZATION IS  40.00%

          ********************
          1 ELECTRON INTEGRALS
          ********************
 ...... END OF ONE-ELECTRON INTEGRALS ......
 CPU     0: STEP CPU TIME=     0.00 TOTAL CPU TIME=        0.0 (    0.0 MIN)
 TOTAL WALL CLOCK TIME=        0.2 SECONDS, CPU UTILIZATION IS  11.76%

          -------------
          GUESS OPTIONS
          -------------
          GUESS =HUCKEL            NORB  =       0          NORDER=       0
          MIX   =       F          PRTMO =       F          PUNMO =       F
          TOLZ  = 1.0E-08          TOLE  = 1.0E-05
          SYMDEN=       F          PURIFY=       F

 INITIAL GUESS ORBITALS GENERATED BY HUCKEL   ROUTINE.
 HUCKEL GUESS REQUIRES      8082 WORDS.

 STATISTICS FOR GENERATION OF SYMMETRY ORBITAL -Q- MATRIX
 NUMBER OF CARTESIAN ATOMIC ORBITALS=         30
 NUMBER OF SPHERICAL CONTAMINANTS DROPPED=     2
 NUMBER OF LINEARLY DEPENDENT MOS DROPPED=     0
 TOTAL NUMBER OF MOS IN VARIATION SPACE=      28

 SYMMETRIES FOR INITIAL GUESS ORBITALS FOLLOW.   BOTH SET(S).
     1 ORBITALS ARE OCCUPIED (    0 CORE ORBITALS).
     1=A        2=A        3=A        4=A        5=A        6=A        7=A   
     8=A        9=A       10=A       11=A   
 ...... END OF INITIAL ORBITAL SELECTION ......
 CPU     0: STEP CPU TIME=     0.01 TOTAL CPU TIME=        0.0 (    0.0 MIN)
 TOTAL WALL CLOCK TIME=        0.2 SECONDS, CPU UTILIZATION IS  15.79%

                    ----------------------
                    AO INTEGRAL TECHNOLOGY
                    ----------------------
     S,P,L SHELL ROTATED AXIS INTEGRALS, REPROGRAMMED BY
        KAZUYA ISHIMURA (IMS) AND JOSE SIERRA (SYNSTAR).
     S,P,D,L SHELL ROTATED AXIS INTEGRALS PROGRAMMED BY
        KAZUYA ISHIMURA (INSTITUTE FOR MOLECULAR SCIENCE).
     S,P,D,F,G SHELL TO TOTAL QUARTET ANGULAR MOMENTUM SUM 5,
        ERIC PROGRAM BY GRAHAM FLETCHER (ELORET AND NASA ADVANCED
        SUPERCOMPUTING DIVISION, AMES RESEARCH CENTER).
     S,P,D,F,G,L SHELL GENERAL RYS QUADRATURE PROGRAMMED BY
        MICHEL DUPUIS (PACIFIC NORTHWEST NATIONAL LABORATORY).

          --------------------
          2 ELECTRON INTEGRALS
          --------------------

 THE -PK- OPTION IS OFF, THE INTEGRALS ARE NOT IN SUPERMATRIX FORM.
 STORING   15000 INTEGRALS/RECORD ON DISK, USING 12 BYTES/INTEGRAL.
 TWO ELECTRON INTEGRAL EVALUATION REQUIRES   90474 WORDS OF MEMORY.
 II,JST,KST,LST =  1  1  1  1 NREC =         1 INTLOC =    1
 II,JST,KST,LST =  2  1  1  1 NREC =         1 INTLOC =    1
 II,JST,KST,LST =  3  1  1  1 NREC =         1 INTLOC =    2
 II,JST,KST,LST =  4  1  1  1 NREC =         1 INTLOC =    2
 II,JST,KST,LST =  5  1  1  1 NREC =         1 INTLOC =    2
 II,JST,KST,LST =  6  1  1  1 NREC =         1 INTLOC =   62
 II,JST,KST,LST =  7  1  1  1 NREC =         1 INTLOC =  686
 II,JST,KST,LST =  8  1  1  1 NREC =         1 INTLOC =  686
 II,JST,KST,LST =  9  1  1  1 NREC =         1 INTLOC =  686
 II,JST,KST,LST = 10  1  1  1 NREC =         1 INTLOC =  686
 II,JST,KST,LST = 11  1  1  1 NREC =         1 INTLOC =  686
 II,JST,KST,LST = 12  1  1  1 NREC =         1 INTLOC =  782
 TOTAL NUMBER OF NONZERO TWO-ELECTRON INTEGRALS =               28697
         16 INTEGRAL RECORDS WERE STORED ON DISK FILE  8.
  ...... END OF TWO-ELECTRON INTEGRALS .....
 CPU     0: STEP CPU TIME=     0.01 TOTAL CPU TIME=        0.0 (    0.0 MIN)
 TOTAL WALL CLOCK TIME=        0.2 SECONDS, CPU UTILIZATION IS  18.18%

          --------------------------
                 RHF SCF CALCULATION
          --------------------------

     NUCLEAR ENERGY =         0.3571428571
     MAXIT =   30     NPUNCH=    2
     EXTRAP=T  DAMP=F  SHIFT=F  RSTRCT=F  DIIS=F  DEM=F  SOSCF=T
     DENSITY MATRIX CONV=  1.00E-06
     SOSCF WILL OPTIMIZE      27 ORBITAL ROTATIONS, SOGTOL=   0.250
     MEMORY REQUIRED FOR RHF ITERS=     36828 WORDS.

 ITER EX DEM     TOTAL ENERGY        E CHANGE  DENSITY CHANGE     ORB. GRAD
   1  0  0       -0.9161162623    -0.9161162623   0.110016750   0.000000000
          ---------------START SECOND ORDER SCF---------------
   2  1  0       -1.0038356754    -0.0877194131   0.039637309   0.028993445
   3  2  0       -1.0075332667    -0.0036975913   0.010436241   0.005649124
   4  3  0       -1.0076842503    -0.0001509836   0.000068938   0.000252957
   5  4  0       -1.0076844093    -0.0000001589   0.000014019   0.000039499
   6  5  0       -1.0076844137    -0.0000000045   0.000000995   0.000001688
   7  6  0       -1.0076844138    -0.0000000000   0.000000200   0.000000278

          -----------------
          DENSITY CONVERGED
          -----------------
     TIME TO FORM FOCK OPERATORS=       0.0 SECONDS (       0.0 SEC/ITER)
     TIME TO SOLVE SCF EQUATIONS=       0.0 SECONDS (       0.0 SEC/ITER)

 FINAL RHF ENERGY IS       -1.0076844138 AFTER   7 ITERATIONS

 LZ VALUE ANALYSIS FOR THE MOS
 ----------------------------------------
 MO     1 (    1) HAS LZ(WEIGHT)= 0.00(100.0%) 
 MO     2 (    2) HAS LZ(WEIGHT)= 0.00(100.0%) 
 MO     3 (    3) HAS LZ(WEIGHT)= 0.00(100.0%) 
 MO     4 (    4) HAS LZ(WEIGHT)= 0.00(100.0%) 
 MO     5 (    5) HAS LZ(WEIGHT)= 0.00(100.0%) 
 MO     6 (    5) HAS LZ(WEIGHT)= 0.00(100.0%) 
 MO     7 (    6) HAS LZ(WEIGHT)= 0.00(100.0%) 
 MO     8 (    7) HAS LZ(WEIGHT)= 0.00(100.0%) 
 MO     9 (    7) HAS LZ(WEIGHT)= 0.00(100.0%) 
 MO    10 (    8) HAS LZ(WEIGHT)= 0.00(100.0%) 
 MO    11 (    9) HAS LZ(WEIGHT)= 0.00(100.0%) 
 MO    12 (   10) HAS LZ(WEIGHT)= 0.00(100.0%) 
 MO    13 (   11) HAS LZ(WEIGHT)= 0.00(100.0%) 
 MO    14 (   12) HAS LZ(WEIGHT)= 0.00(100.0%) 
 MO    15 (   12) HAS LZ(WEIGHT)= 0.00(100.0%) 
 MO    16 (   13) HAS LZ(WEIGHT)= 0.00(100.0%) 
 MO    17 (   13) HAS LZ(WEIGHT)= 0.00(100.0%) 
 MO    18 (   14) HAS LZ(WEIGHT)= 0.00(100.0%) 
 MO    19 (   14) HAS LZ(WEIGHT)= 0.00(100.0%) 
 MO    20 (   15) HAS LZ(WEIGHT)= 0.00(100.0%) 
 MO    21 (   15) HAS LZ(WEIGHT)= 0.00(100.0%) 
 MO    22 (   16) HAS LZ(WEIGHT)= 0.00(100.0%) 
 MO    23 (   16) HAS LZ(WEIGHT)= 0.00(100.0%) 
 MO    24 (   17) HAS LZ(WEIGHT)= 0.00(100.0%) 
 MO    25 (   18) HAS LZ(WEIGHT)= 0.00(100.0%) 
 MO    26 (   18) HAS LZ(WEIGHT)= 0.00(100.0%) 
 MO    27 (   19) HAS LZ(WEIGHT)= 0.00(100.0%) 
 MO    28 (   20) HAS LZ(WEIGHT)= 0.00(100.0%) 

          ------------
          EIGENVECTORS
          ------------

                      1          2          3          4          5
                   -0.4428     0.0353     0.3661     0.4467     0.6674
                     A          A          A          A          A   
    1  H  1  S    0.139806   0.135210   0.048252  -0.101943   0.000000
    2  H  1  S    0.270114   0.166619   0.935690  -1.011803   0.000000
    3  H  1  S    0.254278   0.901454  -0.924761   1.634598   0.000000
    4  H  1  X    0.002033  -0.007371  -0.004368  -0.015677   0.000000
    5  H  1  Y    0.000000   0.000000   0.000000   0.000000  -0.046991
    6  H  1  Z    0.000000   0.000000   0.000000   0.000000   0.043094
    7  H  1  X    0.026417  -0.010317   0.096050   0.153176   0.000000
    8  H  1  Y    0.000000   0.000000   0.000000   0.000000   0.496658
    9  H  1  Z    0.000000   0.000000   0.000000   0.000000  -0.455468
   10  H  1 XX    0.001875   0.000173  -0.007324   0.009823   0.000000
   11  H  1 YY   -0.000938  -0.000087   0.003662  -0.004912   0.000000
   12  H  1 ZZ   -0.000938  -0.000087   0.003662  -0.004912   0.000000
   13  H  1 XY    0.000000   0.000000   0.000000   0.000000   0.001264
   14  H  1 XZ    0.000000   0.000000   0.000000   0.000000  -0.001159
   15  H  1 YZ    0.000000   0.000000   0.000000   0.000000   0.000000
   16  H  2  S    0.139806  -0.135210   0.048252   0.101943   0.000000
   17  H  2  S    0.270114  -0.166619   0.935690   1.011803   0.000000
   18  H  2  S    0.254278  -0.901454  -0.924761  -1.634598   0.000000
   19  H  2  X   -0.002033  -0.007371   0.004368  -0.015677   0.000000
   20  H  2  Y    0.000000   0.000000   0.000000   0.000000  -0.046991
   21  H  2  Z    0.000000   0.000000   0.000000   0.000000   0.043094
   22  H  2  X   -0.026417  -0.010317  -0.096050   0.153176   0.000000
   23  H  2  Y    0.000000   0.000000   0.000000   0.000000   0.496658
   24  H  2  Z    0.000000   0.000000   0.000000   0.000000  -0.455468
   25  H  2 XX    0.001875  -0.000173  -0.007324  -0.009823   0.000000
   26  H  2 YY   -0.000938   0.000087   0.003662   0.004912   0.000000
   27  H  2 ZZ   -0.000938   0.000087   0.003662   0.004912   0.000000
   28  H  2 XY    0.000000   0.000000   0.000000   0.000000  -0.001264
   29  H  2 XZ    0.000000   0.000000   0.000000   0.000000   0.001159
   30  H  2 YZ    0.000000   0.000000   0.000000   0.000000   0.000000

                      6          7          8          9         10
                    0.6674     0.8190     0.9417     0.9417     1.3358
                     A          A          A          A          A   
    1  H  1  S    0.000000   0.008499   0.000000   0.000000   0.102129
    2  H  1  S    0.000000   0.449474   0.000000   0.000000   0.311099
    3  H  1  S    0.000000  -0.239936   0.000000   0.000000   0.724220
    4  H  1  X    0.000000   0.046778   0.000000   0.000000  -0.117928
    5  H  1  Y   -0.043094   0.000000  -0.067909   0.031592   0.000000
    6  H  1  Z   -0.046991   0.000000  -0.031592  -0.067909   0.000000
    7  H  1  X    0.000000  -0.640711   0.000000   0.000000   1.406164
    8  H  1  Y    0.455468   0.000000   0.768666  -0.357591   0.000000
    9  H  1  Z    0.496658   0.000000   0.357591   0.768666   0.000000
   10  H  1 XX    0.000000   0.032144   0.000000   0.000000   0.002868
   11  H  1 YY    0.000000  -0.016072   0.000000   0.000000  -0.001434
   12  H  1 ZZ    0.000000  -0.016072   0.000000   0.000000  -0.001434
   13  H  1 XY    0.001159   0.000000  -0.014970   0.006964   0.000000
   14  H  1 XZ    0.001264   0.000000  -0.006964  -0.014970   0.000000
   15  H  1 YZ    0.000000   0.000000   0.000000   0.000000   0.000000
   16  H  2  S    0.000000   0.008499   0.000000   0.000000  -0.102129
   17  H  2  S    0.000000   0.449474   0.000000   0.000000  -0.311099
   18  H  2  S    0.000000  -0.239936   0.000000   0.000000  -0.724220
   19  H  2  X    0.000000  -0.046778   0.000000   0.000000  -0.117928
   20  H  2  Y   -0.043094   0.000000   0.067909  -0.031592   0.000000
   21  H  2  Z   -0.046991   0.000000   0.031592   0.067909   0.000000
   22  H  2  X    0.000000   0.640711   0.000000   0.000000   1.406164
   23  H  2  Y    0.455468   0.000000  -0.768666   0.357591   0.000000
   24  H  2  Z    0.496658   0.000000  -0.357591  -0.768666   0.000000
   25  H  2 XX    0.000000   0.032144   0.000000   0.000000  -0.002868
   26  H  2 YY    0.000000  -0.016072   0.000000   0.000000   0.001434
   27  H  2 ZZ    0.000000  -0.016072   0.000000   0.000000   0.001434
   28  H  2 XY   -0.001159   0.000000  -0.014970   0.006964   0.000000
   29  H  2 XZ   -0.001264   0.000000  -0.006964  -0.014970   0.000000
   30  H  2 YZ    0.000000   0.000000   0.000000   0.000000   0.000000

                     11         12         13         14         15
                    2.5247     2.6777     3.1192     3.1469     3.1469
                     A          A          A          A          A   
    1  H  1  S   -1.080720  -1.095296   0.100853   0.000000   0.000000
    2  H  1  S    1.239042   1.529135  -0.201062   0.000000   0.000000
    3  H  1  S   -0.476726  -0.662444   0.116045   0.000000   0.000000
    4  H  1  X    0.069154  -0.012339   0.306188   0.000000   0.000000
    5  H  1  Y    0.000000   0.000000   0.000000   0.005399   0.033185
    6  H  1  Z    0.000000   0.000000   0.000000  -0.033185   0.005399
    7  H  1  X   -0.107611   0.312422  -0.195956   0.000000   0.000000
    8  H  1  Y    0.000000   0.000000   0.000000   0.008854   0.054420
    9  H  1  Z    0.000000   0.000000   0.000000  -0.054420   0.008854
   10  H  1 XX    0.005884  -0.126927   0.610163   0.000000   0.000000
   11  H  1 YY   -0.002942   0.063464  -0.305081   0.000000   0.000000
   12  H  1 ZZ   -0.002942   0.063464  -0.305081   0.000000   0.000000
   13  H  1 XY    0.000000   0.000000   0.000000  -0.107836  -0.662815
   14  H  1 XZ    0.000000   0.000000   0.000000   0.662815  -0.107836
   15  H  1 YZ    0.000000   0.000000   0.000000   0.000000   0.000000
   16  H  2  S   -1.080720   1.095296   0.100853   0.000000   0.000000
   17  H  2  S    1.239042  -1.529135  -0.201062   0.000000   0.000000
   18  H  2  S   -0.476726   0.662444   0.116045   0.000000   0.000000
   19  H  2  X   -0.069154  -0.012339  -0.306188   0.000000   0.000000
   20  H  2  Y    0.000000   0.000000   0.000000   0.005399   0.033185
   21  H  2  Z    0.000000   0.000000   0.000000  -0.033185   0.005399
   22  H  2  X    0.107611   0.312422   0.195956   0.000000   0.000000
   23  H  2  Y    0.000000   0.000000   0.000000   0.008854   0.054420
   24  H  2  Z    0.000000   0.000000   0.000000  -0.054420   0.008854
   25  H  2 XX    0.005884   0.126927   0.610163   0.000000   0.000000
   26  H  2 YY   -0.002942  -0.063464  -0.305081   0.000000   0.000000
   27  H  2 ZZ   -0.002942  -0.063464  -0.305081   0.000000   0.000000
   28  H  2 XY    0.000000   0.000000   0.000000   0.107836   0.662815
   29  H  2 XZ    0.000000   0.000000   0.000000  -0.662815   0.107836
   30  H  2 YZ    0.000000   0.000000   0.000000   0.000000   0.000000

                     16         17         18         19         20
                    3.3787     3.3787     3.5160     3.5160     3.8050
                     A          A          A          A          A   
    1  H  1  S    0.000000   0.000000   0.000000   0.000000   0.000000
    2  H  1  S    0.000000   0.000000   0.000000   0.000000   0.000000
    3  H  1  S    0.000000   0.000000   0.000000   0.000000   0.000000
    4  H  1  X    0.000000   0.000000   0.000000   0.000000   0.000000
    5  H  1  Y    0.000000   0.000000   0.000000   0.000000   0.078729
    6  H  1  Z    0.000000   0.000000   0.000000   0.000000   0.624032
    7  H  1  X    0.000000   0.000000   0.000000   0.000000   0.000000
    8  H  1  Y    0.000000   0.000000   0.000000   0.000000  -0.038509
    9  H  1  Z    0.000000   0.000000   0.000000   0.000000  -0.305232
   10  H  1 XX    0.000000   0.000000   0.000000   0.000000   0.000000
   11  H  1 YY   -0.605611  -0.048763  -0.608201   0.105539   0.000000
   12  H  1 ZZ    0.605611   0.048763   0.608201  -0.105539   0.000000
   13  H  1 XY    0.000000   0.000000   0.000000   0.000000   0.063488
   14  H  1 XZ    0.000000   0.000000   0.000000   0.000000   0.503222
   15  H  1 YZ   -0.056307   0.699299   0.121866   0.702290   0.000000
   16  H  2  S    0.000000   0.000000   0.000000   0.000000   0.000000
   17  H  2  S    0.000000   0.000000   0.000000   0.000000   0.000000
   18  H  2  S    0.000000   0.000000   0.000000   0.000000   0.000000
   19  H  2  X    0.000000   0.000000   0.000000   0.000000   0.000000
   20  H  2  Y    0.000000   0.000000   0.000000   0.000000  -0.078729
   21  H  2  Z    0.000000   0.000000   0.000000   0.000000  -0.624032
   22  H  2  X    0.000000   0.000000   0.000000   0.000000   0.000000
   23  H  2  Y    0.000000   0.000000   0.000000   0.000000   0.038509
   24  H  2  Z    0.000000   0.000000   0.000000   0.000000   0.305232
   25  H  2 XX    0.000000   0.000000   0.000000   0.000000   0.000000
   26  H  2 YY   -0.605611  -0.048763   0.608201  -0.105539   0.000000
   27  H  2 ZZ    0.605611   0.048763  -0.608201   0.105539   0.000000
   28  H  2 XY    0.000000   0.000000   0.000000   0.000000   0.063488
   29  H  2 XZ    0.000000   0.000000   0.000000   0.000000   0.503222
   30  H  2 YZ   -0.056307   0.699299  -0.121866  -0.702290   0.000000

                     21         22         23         24         25
                    3.8050     3.8659     3.8659     4.0036     4.0811
                     A          A          A          A          A   
    1  H  1  S    0.000000   0.000000   0.000000   0.025816   0.000000
    2  H  1  S    0.000000   0.000000   0.000000  -0.190058   0.000000
    3  H  1  S    0.000000   0.000000   0.000000  -0.345497   0.000000
    4  H  1  X    0.000000   0.000000   0.000000   0.932546   0.000000
    5  H  1  Y   -0.624032   0.875731  -0.135999   0.000000   0.101509
    6  H  1  Z    0.078729   0.135999   0.875731   0.000000  -0.656978
    7  H  1  X    0.000000   0.000000   0.000000  -0.894493   0.000000
    8  H  1  Y    0.305232  -0.443248   0.068836   0.000000  -0.081440
    9  H  1  Z   -0.038509  -0.068836  -0.443248   0.000000   0.527087
   10  H  1 XX    0.000000   0.000000   0.000000   0.008786   0.000000
   11  H  1 YY    0.000000   0.000000   0.000000  -0.004393   0.000000
   12  H  1 ZZ    0.000000   0.000000   0.000000  -0.004393   0.000000
   13  H  1 XY   -0.503222   0.057156  -0.008876   0.000000  -0.087007
   14  H  1 XZ    0.063488   0.008876   0.057156   0.000000   0.563117
   15  H  1 YZ    0.000000   0.000000   0.000000   0.000000   0.000000
   16  H  2  S    0.000000   0.000000   0.000000  -0.025816   0.000000
   17  H  2  S    0.000000   0.000000   0.000000   0.190058   0.000000
   18  H  2  S    0.000000   0.000000   0.000000   0.345497   0.000000
   19  H  2  X    0.000000   0.000000   0.000000   0.932546   0.000000
   20  H  2  Y    0.624032   0.875731  -0.135999   0.000000  -0.101509
   21  H  2  Z   -0.078729   0.135999   0.875731   0.000000   0.656978
   22  H  2  X    0.000000   0.000000   0.000000  -0.894493   0.000000
   23  H  2  Y   -0.305232  -0.443248   0.068836   0.000000   0.081440
   24  H  2  Z    0.038509  -0.068836  -0.443248   0.000000  -0.527087
   25  H  2 XX    0.000000   0.000000   0.000000  -0.008786   0.000000
   26  H  2 YY    0.000000   0.000000   0.000000   0.004393   0.000000
   27  H  2 ZZ    0.000000   0.000000   0.000000   0.004393   0.000000
   28  H  2 XY   -0.503222  -0.057156   0.008876   0.000000  -0.087007
   29  H  2 XZ    0.063488  -0.008876  -0.057156   0.000000   0.563117
   30  H  2 YZ    0.000000   0.000000   0.000000   0.000000   0.000000

                     26         27         28
                    4.0811     4.2564     5.0897
                     A          A          A   
    1  H  1  S    0.000000   0.067176  -0.473898
    2  H  1  S    0.000000   0.096429   1.137348
    3  H  1  S    0.000000  -0.048363   0.061130
    4  H  1  X    0.000000   0.897941  -0.232387
    5  H  1  Y    0.656978   0.000000   0.000000
    6  H  1  Z    0.101509   0.000000   0.000000
    7  H  1  X    0.000000  -0.497649   1.139240
    8  H  1  Y   -0.527087   0.000000   0.000000
    9  H  1  Z   -0.081440   0.000000   0.000000
   10  H  1 XX    0.000000  -0.237812   0.961174
   11  H  1 YY    0.000000   0.118906  -0.480587
   12  H  1 ZZ    0.000000   0.118906  -0.480587
   13  H  1 XY   -0.563117   0.000000   0.000000
   14  H  1 XZ   -0.087007   0.000000   0.000000
   15  H  1 YZ    0.000000   0.000000   0.000000
   16  H  2  S    0.000000   0.067176   0.473898
   17  H  2  S    0.000000   0.096429  -1.137348
   18  H  2  S    0.000000  -0.048363  -0.061130
   19  H  2  X    0.000000  -0.897941  -0.232387
   20  H  2  Y   -0.656978   0.000000   0.000000
   21  H  2  Z   -0.101509   0.000000   0.000000
   22  H  2  X    0.000000   0.497649   1.139240
   23  H  2  Y    0.527087   0.000000   0.000000
   24  H  2  Z    0.081440   0.000000   0.000000
   25  H  2 XX    0.000000  -0.237812  -0.961174
   26  H  2 YY    0.000000   0.118906   0.480587
   27  H  2 ZZ    0.000000   0.118906   0.480587
   28  H  2 XY   -0.563117   0.000000   0.000000
   29  H  2 XZ   -0.087007   0.000000   0.000000
   30  H  2 YZ    0.000000   0.000000   0.000000
 ...... END OF RHF CALCULATION ......
 CPU     0: STEP CPU TIME=     0.02 TOTAL CPU TIME=        0.1 (    0.0 MIN)
 TOTAL WALL CLOCK TIME=        0.5 SECONDS, CPU UTILIZATION IS  11.32%

     ----------------------------------------------------------------
     PROPERTY VALUES FOR THE RHF   SELF-CONSISTENT FIELD WAVEFUNCTION
     ----------------------------------------------------------------

          -----------------
          ENERGY COMPONENTS
          -----------------

         WAVEFUNCTION NORMALIZATION =       1.0000000000

                ONE ELECTRON ENERGY =      -1.8440219834
                TWO ELECTRON ENERGY =       0.4791947125
           NUCLEAR REPULSION ENERGY =       0.3571428571
                                      ------------------
                       TOTAL ENERGY =      -1.0076844138

 ELECTRON-ELECTRON POTENTIAL ENERGY =       0.4791947125
  NUCLEUS-ELECTRON POTENTIAL ENERGY =      -2.5787520468
   NUCLEUS-NUCLEUS POTENTIAL ENERGY =       0.3571428571
                                      ------------------
             TOTAL POTENTIAL ENERGY =      -1.7424144772
               TOTAL KINETIC ENERGY =       0.7347300635
                 VIRIAL RATIO (V/T) =       2.3715029014

  ...... PI ENERGY ANALYSIS ......

 ENERGY ANALYSIS:
            FOCK ENERGY=     -0.8856325794
          BARE H ENERGY=     -1.8440219834
     ELECTRONIC ENERGY =     -1.3648272814
         KINETIC ENERGY=      0.7347300635
          N-N REPULSION=      0.3571428571
           TOTAL ENERGY=     -1.0076844242
        SIGMA PART(1+2)=     -1.3648272814
               (K,V1,2)=      0.7347300635     -2.5787520468      0.4791947020
           PI PART(1+2)=      0.0000000000
               (K,V1,2)=      0.0000000000      0.0000000000      0.0000000000
  SIGMA SKELETON, ERROR=     -1.0076844242      0.0000000000
             MIXED PART= 0.00000E+00 0.00000E+00 0.00000E+00 0.00000E+00
 ...... END OF PI ENERGY ANALYSIS ......

          ---------------------------------------
          MULLIKEN AND LOWDIN POPULATION ANALYSES
          ---------------------------------------

               ----- POPULATIONS IN EACH AO -----
                             MULLIKEN      LOWDIN
              1  H  1  S      0.14047     0.12173
              2  H  1  S      0.41999     0.27620
              3  H  1  S      0.42599     0.39307
              4  H  1  X      0.00031     0.00103
              5  H  1  Y      0.00000     0.00000
              6  H  1  Z      0.00000     0.00000
              7  H  1  X      0.01303     0.01658
              8  H  1  Y      0.00000     0.00000
              9  H  1  Z      0.00000     0.00000
             10  H  1 XX      0.00005     0.07036
             11  H  1 YY      0.00016     0.06051
             12  H  1 ZZ      0.00000     0.06051
             13  H  1 XY      0.00000     0.00000
             14  H  1 XZ      0.00000     0.00000
             15  H  1 YZ      0.00000     0.00000
             16  H  2  S      0.14047     0.12173
             17  H  2  S      0.41999     0.27620
             18  H  2  S      0.42599     0.39307
             19  H  2  X      0.00031     0.00103
             20  H  2  Y      0.00000     0.00000
             21  H  2  Z      0.00000     0.00000
             22  H  2  X      0.01303     0.01658
             23  H  2  Y      0.00000     0.00000
             24  H  2  Z      0.00000     0.00000
             25  H  2 XX      0.00005     0.07036
             26  H  2 YY      0.00016     0.06051
             27  H  2 ZZ      0.00000     0.06051
             28  H  2 XY      0.00000     0.00000
             29  H  2 XZ      0.00000     0.00000
             30  H  2 YZ      0.00000     0.00000

          ----- MULLIKEN ATOMIC OVERLAP POPULATIONS -----
          (OFF-DIAGONAL ELEMENTS NEED TO BE MULTIPLIED BY 2)

             1           2

    1    0.6924092
    2    0.3075908   0.6924092

          TOTAL MULLIKEN AND LOWDIN ATOMIC POPULATIONS
       ATOM         MULL.POP.    CHARGE          LOW.POP.     CHARGE
    1 H             1.000000   -0.000000         1.000000   -0.000000
    2 H             1.000000    0.000000         1.000000   -0.000000

          MULLIKEN SPHERICAL HARMONIC POPULATIONS
       ATOM           S       P       D      F      G      H      I    TOTAL
    1 H             0.99    0.01    0.00   0.00   0.00   0.00   0.00    1.00
    2 H             0.99    0.01    0.00   0.00   0.00   0.00   0.00    1.00

          ---------------------
          ELECTROSTATIC MOMENTS
          ---------------------

 POINT   1           X           Y           Z (BOHR)    CHARGE
                 1.400000    0.000000    0.000000       -0.00 (A.U.)
         DX          DY          DZ         /D/  (DEBYE)
     0.000000    0.000000    0.000000    0.000000
 ...... END OF PROPERTY EVALUATION ......
 CPU     0: STEP CPU TIME=     0.01 TOTAL CPU TIME=        0.1 (    0.0 MIN)
 TOTAL WALL CLOCK TIME=        0.7 SECONDS, CPU UTILIZATION IS   9.46%

 MXVEC CANNOT BE BIGGER THAN THE NUMBER OF CIS CONFIGS
 SETTING MXVEC = NCFG


          ---------------------------------------------
             ATOMIC ORBITAL BASIS CI-SINGLES ENERGY
             PROGRAM WRITTEN BY SIMON P. WEBB
          ---------------------------------------------

 # CORE ORBITALS      =    0
 # OCCUPIED ORBITALS  =    1
 # MOLECULAR ORBITALS =   28
 # BASIS FUNCTIONS    =   30

 NUMBER OF CIS SPIN-ADAPTED ANTISYMMETRIZED PRODUCTS (SAPS) IS      27

 APPROXIMATING CIS HAMILTONIAN DIAGONAL ELEMENTS USING ONLY ORBITAL ENERGIES

 -CIS- HAM. DIAGONAL ELEMENTS  TOOK      0.000 SECONDS

 MIN MEMORY REQ. FOR CIS ENERGY FOCK-LIKE BUILDS =      1800 WORDS
 MEMORY REQ. FOR SINGLE BATCH BUILDS             =     48600 WORDS
 MEMORY AVAILABLE                                =    958955 WORDS

 SINGLE BATCH ENERGY CALCULATION WILL BE PERFORMED

 UNIT VECTOR GUESS AT CIS COEFFICIENTS ...

 USING IN MEMORY DIAGONALIZTION TO FIND CIS EIGENVALUES AND EIGENVECTORS ...

 STATE    1 ENERGY=       -0.6963150971
 STATE    2 ENERGY=       -0.4333597803
 STATE    3 ENERGY=       -0.3517041597
 STATE    4 ENERGY=       -0.1936227658
 STATE    5 ENERGY=       -0.1936227658


        --------------------------------------------------------
        RESULTS FROM SPIN-ADAPTED ANTISYMMETRIZED PRODUCT (SAPS)
        BASED ATOMIC ORBITAL CI-SINGLES ENERGY CALCULATION
        --------------------------------------------------------

 PRINTING CIS COEFFICIENTS LARGER THAN  0.050000

 RHF REFERENCE ENERGY  =        -1.0076844138


 EXCITED STATE   1  ENERGY=        -0.6963150971  S = 0.0  SPACE SYM = A   

          ----------------------------------------------
          SINGLE EXCITATION               SAP COEFFICENT
          FROM MO     TO MO
          ----------------------------------------------
             1          2                   0.99753404
             1          4                   0.06914377
          ----------------------------------------------


 EXCITED STATE   2  ENERGY=        -0.4333597803  S = 0.0  SPACE SYM = A   

          ----------------------------------------------
          SINGLE EXCITATION               SAP COEFFICENT
          FROM MO     TO MO
          ----------------------------------------------
             1          3                   0.99981944
          ----------------------------------------------


 EXCITED STATE   3  ENERGY=        -0.3517041597  S = 0.0  SPACE SYM = A   

          ----------------------------------------------
          SINGLE EXCITATION               SAP COEFFICENT
          FROM MO     TO MO
          ----------------------------------------------
             1          2                   0.06927672
             1          4                  -0.99735975
          ----------------------------------------------


 EXCITED STATE   4  ENERGY=        -0.1936227658  S = 0.0  SPACE SYM = A   

          ----------------------------------------------
          SINGLE EXCITATION               SAP COEFFICENT
          FROM MO     TO MO
          ----------------------------------------------
             1          5                  -0.99803924
             1          6                   0.06228701
          ----------------------------------------------


 EXCITED STATE   5  ENERGY=        -0.1936227658  S = 0.0  SPACE SYM = A   

          ----------------------------------------------
          SINGLE EXCITATION               SAP COEFFICENT
          FROM MO     TO MO
          ----------------------------------------------
             1          5                  -0.06228701
             1          6                  -0.99803924
          ----------------------------------------------

  ---------------------------------------------------------------------
                    CI-SINGLES EXCITATION ENERGIES
  STATE       HARTREE        EV      KCAL/MOL       CM-1         NM
  ---------------------------------------------------------------------
   1A     0.3113693166     8.4728    195.3872      68337.67     146.33
   1A     0.5743246334    15.6282    360.3942     126049.69      79.33
   1A     0.6559802541    17.8501    411.6339     143971.02      69.46
   1A     0.8140616480    22.1517    510.8315     178665.88      55.97
   1A     0.8140616480    22.1517    510.8315     178665.88      55.97

 -CIS- ENERGY                  TOOK      0.010 SECONDS

  ---------------------------------------------------------------------
                    CIS TRANSITION DIPOLE MOMENTS AND
                    EXPECTATION VALUES OF DIPOLE MOMENTS
  ---------------------------------------------------------------------

 GROUND STATE (SCF) DIPOLE=     0.000000     0.000000     0.000000 DEBYE

 TRANSITION FROM THE GROUND STATE TO EXCITED STATE  1

 STATE MULTIPLICITIES =   1  1
 STATE ENERGIES =         -1.0076844138       -0.6963150971
 EXCITATION ENERGY =  2.0487E+15 [1/SEC] =    68337.67 [1/CM] =      8.47 [EV]
                            X           Y           Z           NORM
 TRANSITION DIPOLE =   -2.182280    0.000000   -0.000000    2.182280 E*BOHR
 TRANSITION DIPOLE =   -5.546846    0.000000   -0.000000    5.546846 DEBYE
 OSCILLATOR STRENGTH =    0.988566
 EINSTEIN COEFFICIENTS: A=  3.0795E+09 1/SEC; B=  1.9328E+09 SEC/G

 TRANSITION FROM THE GROUND STATE TO EXCITED STATE  2

 STATE MULTIPLICITIES =   1  1
 STATE ENERGIES =         -1.0076844138       -0.4333597803
 EXCITATION ENERGY =  3.7789E+15 [1/SEC] =   126049.69 [1/CM] =     15.63 [EV]
                            X           Y           Z           NORM
 TRANSITION DIPOLE =   -0.000000    0.000000    0.000000    0.000000 E*BOHR
 TRANSITION DIPOLE =   -0.000000    0.000000    0.000000    0.000000 DEBYE
 OSCILLATOR STRENGTH =    0.000000
 EINSTEIN COEFFICIENTS: A=  2.9246E-20 1/SEC; B=  2.9250E-21 SEC/G

 TRANSITION FROM THE GROUND STATE TO EXCITED STATE  3

 STATE MULTIPLICITIES =   1  1
 STATE ENERGIES =         -1.0076844138       -0.3517041597
 EXCITATION ENERGY =  4.3161E+15 [1/SEC] =   143971.02 [1/CM] =     17.85 [EV]
                            X           Y           Z           NORM
 TRANSITION DIPOLE =   -0.263247    0.000000    0.000000    0.263247 E*BOHR
 TRANSITION DIPOLE =   -0.669112    0.000000    0.000000    0.669112 DEBYE
 OSCILLATOR STRENGTH =    0.030306
 EINSTEIN COEFFICIENTS: A=  4.1901E+08 1/SEC; B=  2.8124E+07 SEC/G

 TRANSITION FROM THE GROUND STATE TO EXCITED STATE  4

 STATE MULTIPLICITIES =   1  1
 STATE ENERGIES =         -1.0076844138       -0.1936227658
 EXCITATION ENERGY =  5.3563E+15 [1/SEC] =   178665.88 [1/CM] =     22.15 [EV]
                            X           Y           Z           NORM
 TRANSITION DIPOLE =   -0.000000   -0.895087    0.929940    1.290724 E*BOHR
 TRANSITION DIPOLE =   -0.000000   -2.275103    2.363689    3.280719 DEBYE
 OSCILLATOR STRENGTH =    0.904134
 EINSTEIN COEFFICIENTS: A=  1.9252E+10 1/SEC; B=  6.7612E+08 SEC/G

 TRANSITION FROM THE GROUND STATE TO EXCITED STATE  5

 STATE MULTIPLICITIES =   1  1
 STATE ENERGIES =         -1.0076844138       -0.1936227658
 EXCITATION ENERGY =  5.3563E+15 [1/SEC] =   178665.88 [1/CM] =     22.15 [EV]
                            X           Y           Z           NORM
 TRANSITION DIPOLE =    0.000000   -0.929940   -0.895087    1.290724 E*BOHR
 TRANSITION DIPOLE =    0.000000   -2.363689   -2.275103    3.280719 DEBYE
 OSCILLATOR STRENGTH =    0.904134
 EINSTEIN COEFFICIENTS: A=  1.9252E+10 1/SEC; B=  6.7612E+08 SEC/G

 EXPECTATION VALUE DIPOLE MOMENT FOR EXCITED STATE  1

 STATE MULTIPLICITY =   1
 STATE ENERGY =         -0.6963150971
                            X           Y           Z           NORM
      STATE DIPOLE =    0.000000   -0.000000   -0.000000    0.000000 E*BOHR
      STATE DIPOLE =    0.000000   -0.000000   -0.000000    0.000000 DEBYE

 TRANSITION BETWEEN EXCITED STATES   1 AND  2

 STATE MULTIPLICITIES=  1  1
 STATE ENERGIES =         -0.6963150971       -0.4333597803
 TRANSITION ENERGY =  1.7302E+15 [1/SEC] =    57712.02 [1/CM] =        7.16 [EV]
                            X           Y           Z           NORM
 TRANSITION DIPOLE =    1.101701   -0.000000    0.000000    1.101701 E*BOHR
 TRANSITION DIPOLE =    2.800265   -0.000000    0.000000    2.800265 DEBYE
 OSCILLATOR STRENGTH =    0.212774
 EINSTEIN COEFFICIENTS: A=  4.7272E+08 1/SEC; B=  4.9259E+08 SEC/G

 TRANSITION BETWEEN EXCITED STATES   1 AND  3

 STATE MULTIPLICITIES=  1  1
 STATE ENERGIES =         -0.6963150971       -0.3517041597
 TRANSITION ENERGY =  2.2674E+15 [1/SEC] =    75633.36 [1/CM] =        9.38 [EV]
                            X           Y           Z           NORM
 TRANSITION DIPOLE =    0.000000   -0.000000   -0.000000    0.000000 E*BOHR
 TRANSITION DIPOLE =    0.000000   -0.000000   -0.000000    0.000000 DEBYE
 OSCILLATOR STRENGTH =    0.000000
 EINSTEIN COEFFICIENTS: A=  2.2412E-23 1/SEC; B=  1.0376E-23 SEC/G

 TRANSITION BETWEEN EXCITED STATES   1 AND  4

 STATE MULTIPLICITIES=  1  1
 STATE ENERGIES =         -0.6963150971       -0.1936227658
 TRANSITION ENERGY =  3.3076E+15 [1/SEC] =   110328.21 [1/CM] =       13.68 [EV]
                            X           Y           Z           NORM
 TRANSITION DIPOLE =    0.000000    0.000000    0.000000    0.000000 E*BOHR
 TRANSITION DIPOLE =    0.000000    0.000000    0.000000    0.000000 DEBYE
 OSCILLATOR STRENGTH =    0.000000
 EINSTEIN COEFFICIENTS: A=  2.9148E-21 1/SEC; B=  4.3474E-22 SEC/G

 TRANSITION BETWEEN EXCITED STATES   1 AND  5

 STATE MULTIPLICITIES=  1  1
 STATE ENERGIES =         -0.6963150971       -0.1936227658
 TRANSITION ENERGY =  3.3076E+15 [1/SEC] =   110328.21 [1/CM] =       13.68 [EV]
                            X           Y           Z           NORM
 TRANSITION DIPOLE =   -0.000000   -0.000000    0.000000    0.000000 E*BOHR
 TRANSITION DIPOLE =   -0.000000   -0.000000    0.000000    0.000000 DEBYE
 OSCILLATOR STRENGTH =    0.000000
 EINSTEIN COEFFICIENTS: A=  2.7697E-21 1/SEC; B=  4.1310E-22 SEC/G

 EXPECTATION VALUE DIPOLE MOMENT FOR EXCITED STATE  2

 STATE MULTIPLICITY =   1
 STATE ENERGY =         -0.4333597803
                            X           Y           Z           NORM
      STATE DIPOLE =    0.000000    0.000000   -0.000000    0.000000 E*BOHR
      STATE DIPOLE =    0.000000    0.000000   -0.000000    0.000000 DEBYE

 TRANSITION BETWEEN EXCITED STATES   2 AND  3

 STATE MULTIPLICITIES=  1  1
 STATE ENERGIES =         -0.4333597803       -0.3517041597
 TRANSITION ENERGY =  5.3727E+14 [1/SEC] =    17921.34 [1/CM] =        2.22 [EV]
                            X           Y           Z           NORM
 TRANSITION DIPOLE =   -1.854189    0.000000   -0.000000    1.854189 E*BOHR
 TRANSITION DIPOLE =   -4.712914    0.000000   -0.000000    4.712914 DEBYE
 OSCILLATOR STRENGTH =    0.187156
 EINSTEIN COEFFICIENTS: A=  4.0095E+07 1/SEC; B=  1.3953E+09 SEC/G

 TRANSITION BETWEEN EXCITED STATES   2 AND  4

 STATE MULTIPLICITIES=  1  1
 STATE ENERGIES =         -0.4333597803       -0.1936227658
 TRANSITION ENERGY =  1.5774E+15 [1/SEC] =    52616.19 [1/CM] =        6.52 [EV]
                            X           Y           Z           NORM
 TRANSITION DIPOLE =   -0.000000    0.254080   -0.263973    0.366386 E*BOHR
 TRANSITION DIPOLE =   -0.000000    0.645812   -0.670958    0.931267 DEBYE
 OSCILLATOR STRENGTH =    0.021455
 EINSTEIN COEFFICIENTS: A=  3.9619E+07 1/SEC; B=  5.4480E+07 SEC/G

 TRANSITION BETWEEN EXCITED STATES   2 AND  5

 STATE MULTIPLICITIES=  1  1
 STATE ENERGIES =         -0.4333597803       -0.1936227658
 TRANSITION ENERGY =  1.5774E+15 [1/SEC] =    52616.19 [1/CM] =        6.52 [EV]
                            X           Y           Z           NORM
 TRANSITION DIPOLE =    0.000000    0.263973    0.254080    0.366386 E*BOHR
 TRANSITION DIPOLE =    0.000000    0.670958    0.645812    0.931267 DEBYE
 OSCILLATOR STRENGTH =    0.021455
 EINSTEIN COEFFICIENTS: A=  3.9619E+07 1/SEC; B=  5.4480E+07 SEC/G

 EXPECTATION VALUE DIPOLE MOMENT FOR EXCITED STATE  3

 STATE MULTIPLICITY =   1
 STATE ENERGY =         -0.3517041597
                            X           Y           Z           NORM
      STATE DIPOLE =   -0.000000   -0.000000   -0.000000    0.000000 E*BOHR
      STATE DIPOLE =   -0.000000   -0.000000   -0.000000    0.000000 DEBYE

 TRANSITION BETWEEN EXCITED STATES   3 AND  4

 STATE MULTIPLICITIES=  1  1
 STATE ENERGIES =         -0.3517041597       -0.1936227658
 TRANSITION ENERGY =  1.0401E+15 [1/SEC] =    34694.86 [1/CM] =        4.30 [EV]
                            X           Y           Z           NORM
 TRANSITION DIPOLE =    0.000000    0.000000    0.000000    0.000000 E*BOHR
 TRANSITION DIPOLE =    0.000000    0.000000    0.000000    0.000000 DEBYE
 OSCILLATOR STRENGTH =    0.000000
 EINSTEIN COEFFICIENTS: A=  3.0460E-23 1/SEC; B=  1.4609E-22 SEC/G

 TRANSITION BETWEEN EXCITED STATES   3 AND  5

 STATE MULTIPLICITIES=  1  1
 STATE ENERGIES =         -0.3517041597       -0.1936227658
 TRANSITION ENERGY =  1.0401E+15 [1/SEC] =    34694.86 [1/CM] =        4.30 [EV]
                            X           Y           Z           NORM
 TRANSITION DIPOLE =    0.000000    0.000000    0.000000    0.000000 E*BOHR
 TRANSITION DIPOLE =    0.000000    0.000000    0.000000    0.000000 DEBYE
 OSCILLATOR STRENGTH =    0.000000
 EINSTEIN COEFFICIENTS: A=  4.0942E-23 1/SEC; B=  1.9636E-22 SEC/G

 EXPECTATION VALUE DIPOLE MOMENT FOR EXCITED STATE  4

 STATE MULTIPLICITY =   1
 STATE ENERGY =         -0.1936227658
                            X           Y           Z           NORM
      STATE DIPOLE =    0.000000   -0.000000    0.000000    0.000000 E*BOHR
      STATE DIPOLE =    0.000000   -0.000000    0.000000    0.000000 DEBYE

 TRANSITION BETWEEN EXCITED STATES   4 AND  5

 STATE MULTIPLICITIES=  1  1
 STATE ENERGIES =         -0.1936227658       -0.1936227658
 TRANSITION ENERGY =  1.6801E+01 [1/SEC] =        0.00 [1/CM] =        0.00 [EV]
                            X           Y           Z           NORM
 TRANSITION DIPOLE =   -0.000000   -0.000000   -0.000000    0.000000 E*BOHR
 TRANSITION DIPOLE =   -0.000000   -0.000000   -0.000000    0.000000 DEBYE
 OSCILLATOR STRENGTH =    0.000000
 EINSTEIN COEFFICIENTS: A=  5.3309E-66 1/SEC; B=  6.0662E-24 SEC/G

 EXPECTATION VALUE DIPOLE MOMENT FOR EXCITED STATE  5

 STATE MULTIPLICITY =   1
 STATE ENERGY =         -0.1936227658
                            X           Y           Z           NORM
      STATE DIPOLE =    0.000000    0.000000    0.000000    0.000000 E*BOHR
      STATE DIPOLE =    0.000000    0.000000    0.000000    0.000000 DEBYE

 CIS NATURAL ORBITAL OCCUPATION NUMBERS FOR EXCITED STATE    1 ARE
  1.0000 1.0000 0.0000 0.0000 0.0000 0.0000 0.0000 0.0000 0.0000 0.0000
  0.0000 0.0000 0.0000 0.0000 0.0000 0.0000 0.0000 0.0000 0.0000 0.0000
  0.0000 0.0000 0.0000 0.0000 0.0000 0.0000 0.0000-0.0000
 THERE ARE     1.0000 ELECTRONS IN PRINCIPAL CIS NATURAL ORBITALS.
 THERE ARE     1.0000 ELECTRONS IN SECONDARY CIS NATURAL ORBITALS.

          --------------------
          CIS NATURAL ORBITALS
          --------------------

                      1          2          3          4          5

                    1.0000     1.0000     0.0000     0.0000     0.0000

    1  H  1  S   -0.139806   0.115013   0.036668   0.292176   0.104173
    2  H  1  S   -0.270114   0.112150  -0.143631  -0.505680  -0.317891
    3  H  1  S   -0.254278   1.001116  -0.040179   0.689556  -0.765518
    4  H  1  X   -0.002033  -0.006823   0.257766   0.135962   0.684570
    5  H  1  Y    0.000000  -0.000000   0.000000   0.204858   0.110208
    6  H  1  Z    0.000000   0.000000   0.000000  -0.166079   0.159170
    7  H  1  X   -0.026417  -0.003335   0.407334   0.332531  -1.327087
    8  H  1  Y    0.000000  -0.000000   0.000000   0.243558   0.131027
    9  H  1  Z    0.000000   0.000000   0.000000  -0.197453   0.189239
   10  H  1 XX   -0.001875   0.000240   0.126935  -0.157635  -0.468821
   11  H  1 YY    0.000938  -0.000120  -0.063468   0.078817   0.234411
   12  H  1 ZZ    0.000938  -0.000120  -0.063468   0.078817   0.234411
   13  H  1 XY    0.000000  -0.000000   0.000000   0.051698   0.027812
   14  H  1 XZ    0.000000   0.000000   0.000000  -0.041911   0.040168
   15  H  1 YZ    0.000000   0.000000   0.000000   0.000000   0.000000
   16  H  2  S   -0.139806  -0.115013   0.036668  -0.292176  -0.104173
   17  H  2  S   -0.270114  -0.112150  -0.143631   0.505680   0.317891
   18  H  2  S   -0.254278  -1.001116  -0.040179  -0.689556   0.765518
   19  H  2  X    0.002033  -0.006823  -0.257766   0.135962   0.684570
   20  H  2  Y    0.000000  -0.000000   0.000000   0.204858   0.110208
   21  H  2  Z    0.000000   0.000000   0.000000  -0.166079   0.159170
   22  H  2  X    0.026417  -0.003335  -0.407334   0.332531  -1.327087
   23  H  2  Y    0.000000  -0.000000   0.000000   0.243558   0.131027
   24  H  2  Z    0.000000   0.000000   0.000000  -0.197453   0.189239
   25  H  2 XX   -0.001875  -0.000240   0.126935   0.157635   0.468821
   26  H  2 YY    0.000938   0.000120  -0.063468  -0.078817  -0.234411
   27  H  2 ZZ    0.000938   0.000120  -0.063468  -0.078817  -0.234411
   28  H  2 XY    0.000000   0.000000   0.000000  -0.051698  -0.027812
   29  H  2 XZ    0.000000  -0.000000   0.000000   0.041911  -0.040168
   30  H  2 YZ    0.000000   0.000000   0.000000   0.000000   0.000000

                      6          7          8          9         10

                    0.0000     0.0000     0.0000     0.0000     0.0000

    1  H  1  S    0.827372   0.000000   0.000000  -0.033222   0.036419
    2  H  1  S   -1.952560   0.000000   0.000000  -0.427224   0.021527
    3  H  1  S    0.598020   0.000000   0.000000   0.512701  -0.039283
    4  H  1  X    0.229043   0.000000   0.000000  -0.372495  -0.107498
    5  H  1  Y   -0.097373  -0.301201   0.318301   0.204582   0.000000
    6  H  1  Z   -0.075732  -0.318301  -0.301201   0.095960   0.000000
    7  H  1  X   -1.287984   0.000000   0.000000  -0.008721  -0.117775
    8  H  1  Y   -0.115768  -0.254733   0.269194   0.243229   0.000000
    9  H  1  Z   -0.090038  -0.269194  -0.254733   0.114088   0.000000
   10  H  1 XX   -0.386490   0.000000   0.000000   0.208333   0.634173
   11  H  1 YY    0.193245   0.000000   0.000000  -0.104167  -0.317086
   12  H  1 ZZ    0.193245   0.000000   0.000000  -0.104167  -0.317086
   13  H  1 XY   -0.024573   0.067748  -0.071594   0.051628   0.000000
   14  H  1 XZ   -0.019112   0.071594   0.067748   0.024216   0.000000
   15  H  1 YZ    0.000000   0.000000   0.000000   0.000000   0.000000
   16  H  2  S   -0.827372   0.000000   0.000000   0.033222   0.036419
   17  H  2  S    1.952560   0.000000   0.000000   0.427224   0.021527
   18  H  2  S   -0.598020   0.000000   0.000000  -0.512701  -0.039283
   19  H  2  X    0.229043   0.000000   0.000000  -0.372495   0.107498
   20  H  2  Y   -0.097373   0.301201  -0.318301   0.204582   0.000000
   21  H  2  Z   -0.075732   0.318301   0.301201   0.095960   0.000000
   22  H  2  X   -1.287984   0.000000   0.000000  -0.008721   0.117775
   23  H  2  Y   -0.115768   0.254733  -0.269194   0.243229   0.000000
   24  H  2  Z   -0.090038   0.269194   0.254733   0.114088   0.000000
   25  H  2 XX    0.386490   0.000000   0.000000  -0.208333   0.634173
   26  H  2 YY   -0.193245   0.000000   0.000000   0.104167  -0.317086
   27  H  2 ZZ   -0.193245   0.000000   0.000000   0.104167  -0.317086
   28  H  2 XY    0.024573   0.067748  -0.071594  -0.051628   0.000000
   29  H  2 XZ    0.019112   0.071594   0.067748  -0.024216   0.000000
   30  H  2 YZ    0.000000   0.000000   0.000000   0.000000   0.000000

                     11         12         13         14         15

                    0.0000     0.0000     0.0000     0.0000     0.0000

    1  H  1  S    0.000000   0.000000   0.000000   0.000000   0.000000
    2  H  1  S    0.000000   0.000000   0.000000   0.000000   0.000000
    3  H  1  S    0.000000   0.000000   0.000000   0.000000   0.000000
    4  H  1  X    0.000000   0.000000   0.000000   0.000000   0.000000
    5  H  1  Y   -0.101268   0.052639   0.000000   0.000000   0.000000
    6  H  1  Z   -0.052639  -0.101268   0.000000   0.000000   0.000000
    7  H  1  X    0.000000   0.000000   0.000000   0.000000   0.000000
    8  H  1  Y   -0.039541   0.020553   0.000000   0.000000   0.000000
    9  H  1  Z   -0.020553  -0.039541   0.000000   0.000000   0.000000
   10  H  1 XX    0.000000   0.000000   0.000000   0.000000   0.000000
   11  H  1 YY    0.000000   0.000000   0.000000   0.607571   0.000000
   12  H  1 ZZ    0.000000   0.000000   0.000000  -0.607571   0.000000
   13  H  1 XY    0.587573  -0.305420   0.000000   0.000000   0.000000
   14  H  1 XZ    0.305420   0.587573   0.000000   0.000000   0.000000
   15  H  1 YZ    0.000000   0.000000  -0.701562   0.000000   0.712785
   16  H  2  S    0.000000   0.000000   0.000000   0.000000   0.000000
   17  H  2  S    0.000000   0.000000   0.000000   0.000000   0.000000
   18  H  2  S    0.000000   0.000000   0.000000   0.000000   0.000000
   19  H  2  X    0.000000   0.000000   0.000000   0.000000   0.000000
   20  H  2  Y   -0.101268   0.052639   0.000000   0.000000   0.000000
   21  H  2  Z   -0.052639  -0.101268   0.000000   0.000000   0.000000
   22  H  2  X    0.000000   0.000000   0.000000   0.000000   0.000000
   23  H  2  Y   -0.039541   0.020553   0.000000   0.000000   0.000000
   24  H  2  Z   -0.020553  -0.039541   0.000000   0.000000   0.000000
   25  H  2 XX    0.000000   0.000000   0.000000   0.000000   0.000000
   26  H  2 YY    0.000000   0.000000   0.000000   0.607571   0.000000
   27  H  2 ZZ    0.000000   0.000000   0.000000  -0.607571   0.000000
   28  H  2 XY   -0.587573   0.305420   0.000000   0.000000   0.000000
   29  H  2 XZ   -0.305420  -0.587573   0.000000   0.000000   0.000000
   30  H  2 YZ    0.000000   0.000000  -0.701562   0.000000  -0.712785

                     16         17         18         19         20

                    0.0000     0.0000     0.0000     0.0000     0.0000

    1  H  1  S    0.000000   0.000000   0.000000   0.220928  -0.678874
    2  H  1  S    0.000000   0.000000   0.000000  -0.023850  -0.075897
    3  H  1  S    0.000000   0.000000   0.000000   0.001133   0.477609
    4  H  1  X    0.000000   0.000000   0.000000   0.385535   0.079219
    5  H  1  Y    0.000000   0.144546   0.076479   0.009326   0.000000
    6  H  1  Z    0.000000   0.076479  -0.144546   0.004712   0.000000
    7  H  1  X    0.000000   0.000000   0.000000  -0.002138  -0.041616
    8  H  1  Y    0.000000   0.002304   0.001219   0.011088   0.000000
    9  H  1  Z    0.000000   0.001219  -0.002304   0.005602   0.000000
   10  H  1 XX    0.000000   0.000000   0.000000   0.705668   0.077517
   11  H  1 YY   -0.617290   0.000000   0.000000  -0.352834  -0.038758
   12  H  1 ZZ    0.617290   0.000000   0.000000  -0.352834  -0.038758
   13  H  1 XY    0.000000   0.651301   0.344601   0.002354   0.000000
   14  H  1 XZ    0.000000   0.344601  -0.651301   0.001189   0.000000
   15  H  1 YZ    0.000000   0.000000   0.000000   0.000000   0.000000
   16  H  2  S    0.000000   0.000000   0.000000  -0.220928  -0.678874
   17  H  2  S    0.000000   0.000000   0.000000   0.023850  -0.075897
   18  H  2  S    0.000000   0.000000   0.000000  -0.001133   0.477609
   19  H  2  X    0.000000   0.000000   0.000000   0.385535  -0.079219
   20  H  2  Y    0.000000  -0.144546  -0.076479   0.009326   0.000000
   21  H  2  Z    0.000000  -0.076479   0.144546   0.004712   0.000000
   22  H  2  X    0.000000   0.000000   0.000000  -0.002138   0.041616
   23  H  2  Y    0.000000  -0.002304  -0.001219   0.011088   0.000000
   24  H  2  Z    0.000000  -0.001219   0.002304   0.005602   0.000000
   25  H  2 XX    0.000000   0.000000   0.000000  -0.705668   0.077517
   26  H  2 YY    0.617290   0.000000   0.000000   0.352834  -0.038758
   27  H  2 ZZ   -0.617290   0.000000   0.000000   0.352834  -0.038758
   28  H  2 XY    0.000000   0.651301   0.344601  -0.002354   0.000000
   29  H  2 XZ    0.000000   0.344601  -0.651301  -0.001189   0.000000
   30  H  2 YZ    0.000000   0.000000   0.000000   0.000000   0.000000

                     21         22         23         24         25

                    0.0000     0.0000     0.0000     0.0000     0.0000

    1  H  1  S   -0.619158   0.000000   0.000000   0.187449   0.000000
    2  H  1  S    0.635143   0.000000   0.000000  -0.033177   0.000000
    3  H  1  S   -0.850759   0.000000   0.000000   0.044813   0.000000
    4  H  1  X    0.240094   0.000000   0.000000   0.898417   0.000000
    5  H  1  Y    0.032665  -0.816063   0.008525   0.000000   0.034776
    6  H  1  Z   -0.201025   0.008525   0.816063   0.000000  -0.789403
    7  H  1  X   -0.761396   0.000000   0.000000  -0.707384   0.000000
    8  H  1  Y    0.038836   0.706163  -0.007377   0.000000  -0.043132
    9  H  1  Z   -0.239000  -0.007377  -0.706163   0.000000   0.979082
   10  H  1 XX    0.037097   0.000000   0.000000   0.015312   0.000000
   11  H  1 YY   -0.018548   0.000000   0.000000  -0.007656   0.000000
   12  H  1 ZZ   -0.018548   0.000000   0.000000  -0.007656   0.000000
   13  H  1 XY    0.008243  -0.093126   0.000973   0.000000  -0.007565
   14  H  1 XZ   -0.050730   0.000973   0.093126   0.000000   0.171732
   15  H  1 YZ    0.000000   0.000000   0.000000   0.000000   0.000000
   16  H  2  S    0.619158   0.000000   0.000000   0.187449   0.000000
   17  H  2  S   -0.635143   0.000000   0.000000  -0.033177   0.000000
   18  H  2  S    0.850759   0.000000   0.000000   0.044813   0.000000
   19  H  2  X    0.240094   0.000000   0.000000  -0.898417   0.000000
   20  H  2  Y    0.032665  -0.816063   0.008525   0.000000  -0.034776
   21  H  2  Z   -0.201025   0.008525   0.816063   0.000000   0.789403
   22  H  2  X   -0.761396   0.000000   0.000000   0.707384   0.000000
   23  H  2  Y    0.038836   0.706163  -0.007377   0.000000   0.043132
   24  H  2  Z   -0.239000  -0.007377  -0.706163   0.000000  -0.979082
   25  H  2 XX   -0.037097   0.000000   0.000000   0.015312   0.000000
   26  H  2 YY    0.018548   0.000000   0.000000  -0.007656   0.000000
   27  H  2 ZZ    0.018548   0.000000   0.000000  -0.007656   0.000000
   28  H  2 XY   -0.008243   0.093126  -0.000973   0.000000  -0.007565
   29  H  2 XZ    0.050730  -0.000973  -0.093126   0.000000   0.171732
   30  H  2 YZ    0.000000   0.000000   0.000000   0.000000   0.000000

                     26         27         28

                    0.0000     0.0000    -0.0000

    1  H  1  S    0.000000   0.828470   0.486582
    2  H  1  S    0.000000  -1.623126   0.218847
    3  H  1  S    0.000000   0.960494  -1.078396
    4  H  1  X    0.000000  -0.124947  -0.230953
    5  H  1  Y   -0.789403   0.000000   0.070265
    6  H  1  Z   -0.034776   0.000000  -0.056964
    7  H  1  X    0.000000   0.188290  -0.293265
    8  H  1  Y    0.979082   0.000000   0.083539
    9  H  1  Z    0.043132   0.000000  -0.067725
   10  H  1 XX    0.000000   0.073781  -0.058175
   11  H  1 YY    0.000000  -0.036891   0.029088
   12  H  1 ZZ    0.000000  -0.036891   0.029088
   13  H  1 XY    0.171732   0.000000   0.017732
   14  H  1 XZ    0.007565   0.000000  -0.014375
   15  H  1 YZ    0.000000   0.000000   0.000000
   16  H  2  S    0.000000   0.828470  -0.486582
   17  H  2  S    0.000000  -1.623126  -0.218847
   18  H  2  S    0.000000   0.960494   1.078396
   19  H  2  X    0.000000   0.124947  -0.230953
   20  H  2  Y    0.789403   0.000000   0.070265
   21  H  2  Z    0.034776   0.000000  -0.056964
   22  H  2  X    0.000000  -0.188290  -0.293265
   23  H  2  Y   -0.979082   0.000000   0.083539
   24  H  2  Z   -0.043132   0.000000  -0.067725
   25  H  2 XX    0.000000   0.073781   0.058175
   26  H  2 YY    0.000000  -0.036891  -0.029088
   27  H  2 ZZ    0.000000  -0.036891  -0.029088
   28  H  2 XY    0.171732   0.000000  -0.017732
   29  H  2 XZ    0.007565   0.000000   0.014375
   30  H  2 YZ    0.000000   0.000000   0.000000

 THE CIS NATURAL ORBITALS HAVE BEEN PUNCHED.

 ..... DONE WITH CIS ENERGY .....

 CPU     0: STEP CPU TIME=     0.01 TOTAL CPU TIME=        0.1 (    0.0 MIN)
 TOTAL WALL CLOCK TIME=        1.5 SECONDS, CPU UTILIZATION IS   5.48%

     -------------------------------------------------------------
     CIS   PROPERTIES...FOR THE WAVEFUNCTION OF EXCITED STATE    1
                 USING THE EXPECTATION VALUE DENSITY
     -------------------------------------------------------------

          -----------------
          ENERGY COMPONENTS
          -----------------

         WAVEFUNCTION NORMALIZATION =       1.0000000000

                ONE ELECTRON ENERGY =      -1.5260759817
                TWO ELECTRON ENERGY =       0.4726180274
           NUCLEAR REPULSION ENERGY =       0.3571428571
                                      ------------------
                       TOTAL ENERGY =      -0.6963150971

 ELECTRON-ELECTRON POTENTIAL ENERGY =       0.4726180274
  NUCLEUS-ELECTRON POTENTIAL ENERGY =      -2.2503081421
   NUCLEUS-NUCLEUS POTENTIAL ENERGY =       0.3571428571
                                      ------------------
             TOTAL POTENTIAL ENERGY =      -1.4205472576
               TOTAL KINETIC ENERGY =       0.7242321604
                 VIRIAL RATIO (V/T) =       1.9614528810

          ---------------------------------------
          MULLIKEN AND LOWDIN POPULATION ANALYSES
          ---------------------------------------

               ----- POPULATIONS IN EACH AO -----
                             MULLIKEN      LOWDIN
              1  H  1  S      0.11391     0.09578
              2  H  1  S      0.26775     0.24402
              3  H  1  S      0.60972     0.44541
              4  H  1  X      0.00082     0.00112
              5  H  1  Y      0.00000     0.00000
              6  H  1  Z      0.00000     0.00000
              7  H  1  X      0.00770     0.05863
              8  H  1  Y      0.00000     0.00000
              9  H  1  Z      0.00000     0.00000
             10  H  1 XX      0.00002     0.04915
             11  H  1 YY      0.00007     0.05295
             12  H  1 ZZ      0.00000     0.05295
             13  H  1 XY      0.00000     0.00000
             14  H  1 XZ      0.00000     0.00000
             15  H  1 YZ      0.00000     0.00000
             16  H  2  S      0.11391     0.09578
             17  H  2  S      0.26775     0.24402
             18  H  2  S      0.60972     0.44541
             19  H  2  X      0.00082     0.00112
             20  H  2  Y      0.00000     0.00000
             21  H  2  Z      0.00000     0.00000
             22  H  2  X      0.00770     0.05863
             23  H  2  Y      0.00000     0.00000
             24  H  2  Z      0.00000     0.00000
             25  H  2 XX      0.00002     0.04915
             26  H  2 YY      0.00007     0.05295
             27  H  2 ZZ      0.00000     0.05295
             28  H  2 XY      0.00000     0.00000
             29  H  2 XZ      0.00000     0.00000
             30  H  2 YZ      0.00000     0.00000

          ----- MULLIKEN ATOMIC OVERLAP POPULATIONS -----
          (OFF-DIAGONAL ELEMENTS NEED TO BE MULTIPLIED BY 2)

             1           2

    1    1.6557098
    2   -0.6557098   1.6557098

          TOTAL MULLIKEN AND LOWDIN ATOMIC POPULATIONS
       ATOM         MULL.POP.    CHARGE          LOW.POP.     CHARGE
    1 H             1.000000   -0.000000         1.000000    0.000000
    2 H             1.000000    0.000000         1.000000    0.000000

          MULLIKEN SPHERICAL HARMONIC POPULATIONS
       ATOM           S       P       D      F      G      H      I    TOTAL
    1 H             0.99    0.01    0.00   0.00   0.00   0.00   0.00    1.00
    2 H             0.99    0.01    0.00   0.00   0.00   0.00   0.00    1.00

          ---------------------
          ELECTROSTATIC MOMENTS
          ---------------------

 POINT   1           X           Y           Z (BOHR)    CHARGE
                 1.400000    0.000000    0.000000        0.00 (A.U.)
         DX          DY          DZ         /D/  (DEBYE)
     0.000000   -0.000000   -0.000000    0.000000
 ...... END OF PROPERTY EVALUATION ......
 CPU     0: STEP CPU TIME=     0.01 TOTAL CPU TIME=        0.1 (    0.0 MIN)
 TOTAL WALL CLOCK TIME=        1.5 SECONDS, CPU UTILIZATION IS   6.04%
                580000  WORDS OF DYNAMIC MEMORY USED
 EXECUTION OF GAMESS TERMINATED NORMALLY Wed Apr 12 18:21:15 2017
 DDI: 263640 bytes (0.3 MB / 0 MWords) used by master data server.

 ----------------------------------------
 CPU timing information for all processes
 ========================================
 0: 0.38 + 0.62 = 0.101
 1: 0.17 + 0.27 = 0.45
 2: 0.16 + 0.38 = 0.54
 3: 0.23 + 0.24 = 0.47
 4: 0.25 + 0.34 = 0.60
 5: 0.22 + 0.26 = 0.48
 6: 0.20 + 0.36 = 0.57
 7: 0.21 + 0.21 = 0.42
 8: 0.25 + 0.36 = 0.61
 9: 0.27 + 0.18 = 0.46
 10: 0.24 + 0.29 = 0.53
 11: 0.18 + 0.19 = 0.38
 12: 0.24 + 0.33 = 0.57
 13: 0.15 + 0.22 = 0.37
 14: 0.18 + 0.30 = 0.48
 15: 0.14 + 0.21 = 0.36
 ----------------------------------------
 ddikick.x: exited gracefully.
----- accounting info -----
Files used on the master node kylin.physics.illinois.edu were:
-rw-rw-r--. 1 yyang173 yyang173     331 Apr 12 18:21 /scr/yyang173/sep2.80-cis.F05
-rw-rw-r--. 1 yyang173 yyang173  180016 Apr 12 18:21 /scr/yyang173/sep2.80-cis.F08
-rw-rw-r--. 1 yyang173 yyang173  180016 Apr 12 18:21 /scr/yyang173/sep2.80-cis.F08.001
-rw-rw-r--. 1 yyang173 yyang173  180016 Apr 12 18:21 /scr/yyang173/sep2.80-cis.F08.002
-rw-rw-r--. 1 yyang173 yyang173  180016 Apr 12 18:21 /scr/yyang173/sep2.80-cis.F08.003
-rw-rw-r--. 1 yyang173 yyang173  180016 Apr 12 18:21 /scr/yyang173/sep2.80-cis.F08.004
-rw-rw-r--. 1 yyang173 yyang173  180016 Apr 12 18:21 /scr/yyang173/sep2.80-cis.F08.005
-rw-rw-r--. 1 yyang173 yyang173  180016 Apr 12 18:21 /scr/yyang173/sep2.80-cis.F08.006
-rw-rw-r--. 1 yyang173 yyang173  180016 Apr 12 18:21 /scr/yyang173/sep2.80-cis.F08.007
-rw-rw-r--. 1 yyang173 yyang173  180016 Apr 12 18:21 /scr/yyang173/sep2.80-cis.F08.008
-rw-rw-r--. 1 yyang173 yyang173  180016 Apr 12 18:21 /scr/yyang173/sep2.80-cis.F08.009
-rw-rw-r--. 1 yyang173 yyang173  180016 Apr 12 18:21 /scr/yyang173/sep2.80-cis.F08.010
-rw-rw-r--. 1 yyang173 yyang173  180016 Apr 12 18:21 /scr/yyang173/sep2.80-cis.F08.011
-rw-rw-r--. 1 yyang173 yyang173  180016 Apr 12 18:21 /scr/yyang173/sep2.80-cis.F08.012
-rw-rw-r--. 1 yyang173 yyang173  180016 Apr 12 18:21 /scr/yyang173/sep2.80-cis.F08.013
-rw-rw-r--. 1 yyang173 yyang173  180016 Apr 12 18:21 /scr/yyang173/sep2.80-cis.F08.014
-rw-rw-r--. 1 yyang173 yyang173  180016 Apr 12 18:21 /scr/yyang173/sep2.80-cis.F08.015
-rw-rw-r--. 1 yyang173 yyang173 1636000 Apr 12 18:21 /scr/yyang173/sep2.80-cis.F10
-rw-rw-r--. 1 yyang173 yyang173    1120 Apr 12 18:21 /scr/yyang173/sep2.80-cis.F12
Wed Apr 12 18:21:18 CDT 2017
0.246u 0.103s 0:06.50 5.2%	0+0k 0+16io 0pf+0w
