----- GAMESS execution script 'rungms' -----
This job is running on host kylin.physics.illinois.edu
under operating system Linux at Wed Apr 12 18:19:50 CDT 2017
Available scratch disk space (Kbyte units) at beginning of the job is
Filesystem                    1K-blocks     Used Available Use% Mounted on
/dev/mapper/fedora_kylin-root 110123880 60480280  44601484  58% /
GAMESS temporary binary files will be written to /scr/yyang173
GAMESS supplementary output files will be written to /home/yyang173/Desktop/attempts/drag-node/hf_grid/cis/sep1.00
Copying input file sep1.00-cis.inp to your run's scratch directory...
 
Assuming a single but multicore node.
 

 Distributed Data Interface kickoff program.
 Initiating 16 compute processes on 1 nodes to run the following command:
 /opt/intel17/apps/gamess_2016R1/gamess.00.x sep1.00-cis 

          ******************************************************
          *         GAMESS VERSION = 18 AUG 2016 (R1)          *
          *             FROM IOWA STATE UNIVERSITY             *
          * M.W.SCHMIDT, K.K.BALDRIDGE, J.A.BOATZ, S.T.ELBERT, *
          *   M.S.GORDON, J.H.JENSEN, S.KOSEKI, N.MATSUNAGA,   *
          *          K.A.NGUYEN, S.J.SU, T.L.WINDUS,           *
          *       TOGETHER WITH M.DUPUIS, J.A.MONTGOMERY       *
          *         J.COMPUT.CHEM.  14, 1347-1363(1993)        *
          **************** 64 BIT INTEL VERSION ****************

  SINCE 1993, STUDENTS AND POSTDOCS WORKING AT IOWA STATE UNIVERSITY
  AND ALSO IN THEIR VARIOUS JOBS AFTER LEAVING ISU HAVE MADE IMPORTANT
  CONTRIBUTIONS TO THE CODE:
     IVANA ADAMOVIC, CHRISTINE AIKENS, YURI ALEXEEV, POOJA ARORA,
     ANDREY ASADCHEV, ROB BELL, PRADIPTA BANDYOPADHYAY, JONATHAN BENTZ,
     BRETT BODE, KURT BRORSEN, CALEB CARLIN, GALINA CHABAN, WEI CHEN,
     CHEOL HO CHOI, PAUL DAY, ALBERT DEFUSCO, NUWAN DESILVA, TIM DUDLEY,
     DMITRI FEDOROV, GRAHAM FLETCHER, MARK FREITAG, KURT GLAESEMANN,
     DAN KEMP, GRANT MERRILL, NORIYUKI MINEZAWA, JONATHAN MULLIN,
     TAKESHI NAGATA, SEAN NEDD, HEATHER NETZLOFF, BOSILJKA NJEGIC, RYAN OLSON,
     MIKE PAK, SPENCER PRUITT, LUKE ROSKOP, JIM SHOEMAKER, LYUDMILA SLIPCHENKO,
     TONY SMITH, SAROM SOK LEANG, JIE SONG, TETSUYA TAKETSUGU, SIMON WEBB,
     PENG XU, SOOHAENG YOO, FEDERICO ZAHARIEV

  ADDITIONAL CODE HAS BEEN PROVIDED BY COLLABORATORS IN OTHER GROUPS:
     IOWA STATE UNIVERSITY:
          JOE IVANIC, AARON WEST, LAIMUTIS BYTAUTAS, KLAUS RUEDENBERG
     UNIVERSITY OF TOKYO: KIMIHIKO HIRAO, TAKAHITO NAKAJIMA,
          TAKAO TSUNEDA, MUNEAKI KAMIYA, SUSUMU YANAGISAWA,
          KIYOSHI YAGI, MAHITO CHIBA, SEIKEN TOKURA, NAOAKI KAWAKAMI
     UNIVERSITY OF AARHUS: FRANK JENSEN
     UNIVERSITY OF IOWA: VISVALDAS KAIRYS, HUI LI
     NATIONAL INST. OF STANDARDS AND TECHNOLOGY: WALT STEVENS, DAVID GARMER
     UNIVERSITY OF PISA: BENEDETTA MENNUCCI, JACOPO TOMASI
     UNIVERSITY OF MEMPHIS: HENRY KURTZ, PRAKASHAN KORAMBATH
     UNIVERSITY OF ALBERTA: TOBY ZENG, MARIUSZ KLOBUKOWSKI
     UNIVERSITY OF NEW ENGLAND: MARK SPACKMAN
     MIE UNIVERSITY: HIROAKI UMEDA
     NAT. INST. OF ADVANCED INDUSTRIAL SCIENCE AND TECHNOLOGY: KAZUO KITAURA
     MICHIGAN STATE UNIVERSITY:
          KAROL KOWALSKI, MARTA WLOCH, JEFFREY GOUR, JESSE LUTZ,
          WEI LI, PIOTR PIECUCH
     UNIVERSITY OF SILESIA: MONIKA MUSIAL, STANISLAW KUCHARSKI
     FACULTES UNIVERSITAIRES NOTRE-DAME DE LA PAIX:
          OLIVIER QUINET, BENOIT CHAMPAGNE
     UNIVERSITY OF CALIFORNIA - SANTA BARBARA: BERNARD KIRTMAN
     INSTITUTE FOR MOLECULAR SCIENCE:
          KAZUYA ISHIMURA, MICHIO KATOUDA, AND SHIGERU NAGASE
     UNIVERSITY OF NOTRE DAME: ANNA POMOGAEVA, DAN CHIPMAN
     KYUSHU UNIVERSITY:
          HARUYUKI NAKANO,
          FENG LONG GU, JACEK KORCHOWIEC, MARCIN MAKOWSKI, AND YURIKO AOKI,
          HIROTOSHI MORI AND EISAKU MIYOSHI
     PENNSYLVANIA STATE UNIVERSITY:
          TZVETELIN IORDANOV, CHET SWALINA, JONATHAN SKONE,
          SHARON HAMMES-SCHIFFER
     WASEDA UNIVERSITY:
          MASATO KOBAYASHI, TOMOKO AKAMA, TSUGUKI TOUMA,
          TAKESHI YOSHIKAWA, YASUHIRO IKABATA, JUNJI SEINO,
          YUYA NAKAJIMA, HIROMI NAKAI
     NANJING UNIVERSITY: SHUHUA LI
     UNIVERSITY OF NEBRASKA:
          PEIFENG SU, DEJUN SI, NANDUN THELLAMUREGE, YALI WANG, HUI LI
     UNIVERSITY OF ZURICH: ROBERTO PEVERATI, KIM BALDRIDGE
     N. COPERNICUS UNIVERSITY AND JACKSON STATE UNIVERSITY:
          MARIA BARYSZ
     UNIVERSITY OF COPENHAGEN: Jimmy Kromann, CASPER STEINMANN
     TOKYO INSTITUTE OF TECHNOLOGY: HIROYA NAKATA
     NAGOYA UNIVERSITY: YOSHIO NISHIMOTO, STEPHAN IRLE
     MOSCOW STATE UNIVERSITY: VLADIMIR MIRONOV


 PARALLEL VERSION RUNNING ON       16 PROCESSORS IN        1 NODES.

 EXECUTION OF GAMESS BEGUN Wed Apr 12 18:19:50 2017

            ECHO OF THE FIRST FEW INPUT CARDS -
 INPUT CARD> $contrl coord=unique icharg=0 ispher=1 mult=1 runtyp=energy                    
 INPUT CARD>         scftyp=rhf cityp=cis units=bohr  $end                                  
 INPUT CARD> $basis  gbasis=cct  $end                                                       
 INPUT CARD> $guess  guess=huckel  $end                                                     
 INPUT CARD> $cis    nstate=5 $end                                                          
 INPUT CARD> $DATA                                                                          
 INPUT CARD>A molecule.                                                                     
 INPUT CARD>C1                                                                              
 INPUT CARD>H 1.00       0.00000000       0.00000000       0.00000000                       
 INPUT CARD>H 1.00       1.000000000       0.00000000       0.00000000                      
 INPUT CARD> $END                                                                           
    1000000 WORDS OF MEMORY AVAILABLE

     BASIS OPTIONS
     -------------
     GBASIS=CCT          IGAUSS=       0      POLAR=NONE    
     NDFUNC=       0     NFFUNC=       0     DIFFSP=       F
     NPFUNC=       0      DIFFS=       F     BASNAM=        


     RUN TITLE
     ---------
 A molecule.                                                                     

 THE POINT GROUP OF THE MOLECULE IS C1      
 THE ORDER OF THE PRINCIPAL AXIS IS     0

 ATOM      ATOMIC                      COORDINATES (BOHR)
           CHARGE         X                   Y                   Z
 H           1.0     0.0000000000        0.0000000000        0.0000000000
 H           1.0     1.0000000000        0.0000000000        0.0000000000

          INTERNUCLEAR DISTANCES (ANGS.)
          ------------------------------

                1 H          2 H     

   1 H       0.0000000    0.5291772 *
   2 H       0.5291772 *  0.0000000  

  * ... LESS THAN  3.000


     ATOMIC BASIS SET
     ----------------
 THE CONTRACTED PRIMITIVE FUNCTIONS HAVE BEEN UNNORMALIZED
 THE CONTRACTED BASIS FUNCTIONS ARE NOW NORMALIZED TO UNITY

  SHELL TYPE  PRIMITIVE        EXPONENT          CONTRACTION COEFFICIENT(S)

 H         

      1   S       1            33.8700000    0.025494863235
      1   S       2             5.0950000    0.190362765893
      1   S       3             1.1590000    0.852162022245

      2   S       4             0.3258000    1.000000000000

      3   S       5             0.1027000    1.000000000000

      4   P       6             1.4070000    1.000000000000

      5   P       7             0.3880000    1.000000000000

      6   D       8             1.0570000    1.000000000000

 H         

      7   S       9            33.8700000    0.025494863235
      7   S      10             5.0950000    0.190362765893
      7   S      11             1.1590000    0.852162022245

      8   S      12             0.3258000    1.000000000000

      9   S      13             0.1027000    1.000000000000

     10   P      14             1.4070000    1.000000000000

     11   P      15             0.3880000    1.000000000000

     12   D      16             1.0570000    1.000000000000

 TOTAL NUMBER OF BASIS SET SHELLS             =   12
 NUMBER OF CARTESIAN GAUSSIAN BASIS FUNCTIONS =   30
 NOTE: THIS RUN WILL RESTRICT THE MO VARIATION SPACE TO SPHERICAL HARMONICS.
 THE NUMBER OF ORBITALS KEPT IN THE VARIATIONAL SPACE WILL BE PRINTED LATER.
 NUMBER OF ELECTRONS                          =    2
 CHARGE OF MOLECULE                           =    0
 SPIN MULTIPLICITY                            =    1
 NUMBER OF OCCUPIED ORBITALS (ALPHA)          =    1
 NUMBER OF OCCUPIED ORBITALS (BETA )          =    1
 TOTAL NUMBER OF ATOMS                        =    2
 THE NUCLEAR REPULSION ENERGY IS        1.0000000000

 THIS MOLECULE IS RECOGNIZED AS BEING LINEAR,
 ORBITAL LZ DEGENERACY TOLERANCE ETOLLZ= 1.00E-06

     $CONTRL OPTIONS
     ---------------
 SCFTYP=RHF          RUNTYP=ENERGY       EXETYP=RUN     
 MPLEVL=       0     CITYP =CIS          CCTYP =NONE         VBTYP =NONE    
 DFTTYP=NONE         TDDFT =NONE    
 MULT  =       1     ICHARG=       0     NZVAR =       0     COORD =UNIQUE  
 PP    =NONE         RELWFN=NONE         LOCAL =NONE         NUMGRD=       F
 ISPHER=       1     NOSYM =       0     MAXIT =      30     UNITS =BOHR    
 PLTORB=       F     MOLPLT=       F     AIMPAC=       F     FRIEND=        
 NPRINT=       7     IREST =       0     GEOM  =INPUT   
 NORMF =       0     NORMP =       0     ITOL  =      20     ICUT  =       9
 INTTYP=BEST         GRDTYP=BEST         QMTTOL= 1.0E-06

     $SYSTEM OPTIONS
     ---------------
  REPLICATED MEMORY=     1000000 WORDS (ON EVERY NODE).
 DISTRIBUTED MEMDDI=           0 MILLION WORDS IN AGGREGATE,
 MEMDDI DISTRIBUTED OVER  16 PROCESSORS IS           0 WORDS/PROCESSOR.
 TOTAL MEMORY REQUESTED ON EACH PROCESSOR=     1000000 WORDS.
 TIMLIM=      525600.00 MINUTES, OR     365.0 DAYS.
 PARALL= T  BALTYP=  DLB     KDIAG=    0  COREFL= F
 MXSEQ2=     300 MXSEQ3=     150  mem10=         0

          ----------------
          PROPERTIES INPUT
          ----------------

     MOMENTS            FIELD           POTENTIAL          DENSITY
 IEMOM =       1   IEFLD =       0   IEPOT =       0   IEDEN =       0
 WHERE =COMASS     WHERE =NUCLEI     WHERE =NUCLEI     WHERE =NUCLEI  
 OUTPUT=BOTH       OUTPUT=BOTH       OUTPUT=BOTH       OUTPUT=BOTH    
 IEMINT=       0   IEFINT=       0                     IEDINT=       0
                                                       MORB  =       0
          EXTRAPOLATION IN EFFECT
          SOSCF IN EFFECT
 ORBITAL PRINTING OPTION: NPREO=     1    30     2     1

     -------------------------------
     INTEGRAL TRANSFORMATION OPTIONS
     -------------------------------
     NWORD  =            0
     CUTOFF = 1.0E-09     MPTRAN =       0
     DIRTRF =       F     AOINTS =DUP     

          ----------------------
          INTEGRAL INPUT OPTIONS
          ----------------------
 NOPK  =       1 NORDER=       0 SCHWRZ=       F

     ------------------------------
     CI-SINGLES CONTROL INFORMATION
     ------------------------------
     NACORE =        0  NBCORE   =        0
     NSTATE =        5  IROOT    =        1
     HAMTYP = SAPS      SAP MULT =        1
     DIAGZN = DAVID     MXVEC    =       40
     NDAVIT =       50  DAVCVG   = 1.00E-05
     CISPRP =        F  NGSVEC   =       10
     MNMEDG =        F  MNMEOP   =        F
     CHFSLV = CONJG     RDCISV   =        F
     DGAPRX =        T

     NUMBER OF CORE -A-  ORBITALS =     0
     NUMBER OF CORE -B-  ORBITALS =     0
     NUMBER OF OCC. -A-  ORBITALS =     1
     NUMBER OF OCC. -B-  ORBITALS =     1
     NUMBER OF MOLECULAR ORBITALS =    30
     NUMBER OF   BASIS  FUNCTIONS =    30


     ------------------------------------------
     THE POINT GROUP IS C1 , NAXIS= 0, ORDER= 1
     ------------------------------------------

 -- VARIATIONAL SPACE WILL BE RESTRICTED TO PURE SPHERICAL HARMONICS ONLY --
 AFTER EXCLUDING CONTAMINANT COMBINATIONS FROM THE CARTESIAN GAUSSIAN BASIS
 SET, THE NUMBER OF SPHERICAL HARMONICS KEPT IN THE VARIATION SPACE IS   28

     DIMENSIONS OF THE SYMMETRY SUBSPACES ARE
 A   =   28

 ..... DONE SETTING UP THE RUN .....
 CPU     0: STEP CPU TIME=     0.02 TOTAL CPU TIME=        0.0 (    0.0 MIN)
 TOTAL WALL CLOCK TIME=        0.0 SECONDS, CPU UTILIZATION IS  50.00%

          ********************
          1 ELECTRON INTEGRALS
          ********************
 ...... END OF ONE-ELECTRON INTEGRALS ......
 CPU     0: STEP CPU TIME=     0.00 TOTAL CPU TIME=        0.0 (    0.0 MIN)
 TOTAL WALL CLOCK TIME=        0.1 SECONDS, CPU UTILIZATION IS  20.00%

          -------------
          GUESS OPTIONS
          -------------
          GUESS =HUCKEL            NORB  =       0          NORDER=       0
          MIX   =       F          PRTMO =       F          PUNMO =       F
          TOLZ  = 1.0E-08          TOLE  = 1.0E-05
          SYMDEN=       F          PURIFY=       F

 INITIAL GUESS ORBITALS GENERATED BY HUCKEL   ROUTINE.
 HUCKEL GUESS REQUIRES      8082 WORDS.

 STATISTICS FOR GENERATION OF SYMMETRY ORBITAL -Q- MATRIX
 NUMBER OF CARTESIAN ATOMIC ORBITALS=         30
 NUMBER OF SPHERICAL CONTAMINANTS DROPPED=     2
 NUMBER OF LINEARLY DEPENDENT MOS DROPPED=     0
 TOTAL NUMBER OF MOS IN VARIATION SPACE=      28

 SYMMETRIES FOR INITIAL GUESS ORBITALS FOLLOW.   BOTH SET(S).
     1 ORBITALS ARE OCCUPIED (    0 CORE ORBITALS).
     1=A        2=A        3=A        4=A        5=A        6=A        7=A   
     8=A        9=A       10=A       11=A   
 ...... END OF INITIAL ORBITAL SELECTION ......
 CPU     0: STEP CPU TIME=     0.01 TOTAL CPU TIME=        0.0 (    0.0 MIN)
 TOTAL WALL CLOCK TIME=        0.2 SECONDS, CPU UTILIZATION IS  15.79%

                    ----------------------
                    AO INTEGRAL TECHNOLOGY
                    ----------------------
     S,P,L SHELL ROTATED AXIS INTEGRALS, REPROGRAMMED BY
        KAZUYA ISHIMURA (IMS) AND JOSE SIERRA (SYNSTAR).
     S,P,D,L SHELL ROTATED AXIS INTEGRALS PROGRAMMED BY
        KAZUYA ISHIMURA (INSTITUTE FOR MOLECULAR SCIENCE).
     S,P,D,F,G SHELL TO TOTAL QUARTET ANGULAR MOMENTUM SUM 5,
        ERIC PROGRAM BY GRAHAM FLETCHER (ELORET AND NASA ADVANCED
        SUPERCOMPUTING DIVISION, AMES RESEARCH CENTER).
     S,P,D,F,G,L SHELL GENERAL RYS QUADRATURE PROGRAMMED BY
        MICHEL DUPUIS (PACIFIC NORTHWEST NATIONAL LABORATORY).

          --------------------
          2 ELECTRON INTEGRALS
          --------------------

 THE -PK- OPTION IS OFF, THE INTEGRALS ARE NOT IN SUPERMATRIX FORM.
 STORING   15000 INTEGRALS/RECORD ON DISK, USING 12 BYTES/INTEGRAL.
 TWO ELECTRON INTEGRAL EVALUATION REQUIRES   90474 WORDS OF MEMORY.
 II,JST,KST,LST =  1  1  1  1 NREC =         1 INTLOC =    1
 II,JST,KST,LST =  2  1  1  1 NREC =         1 INTLOC =    1
 II,JST,KST,LST =  3  1  1  1 NREC =         1 INTLOC =    5
 II,JST,KST,LST =  4  1  1  1 NREC =         1 INTLOC =    5
 II,JST,KST,LST =  5  1  1  1 NREC =         1 INTLOC =    5
 II,JST,KST,LST =  6  1  1  1 NREC =         1 INTLOC =    5
 II,JST,KST,LST =  7  1  1  1 NREC =         1 INTLOC =   20
 II,JST,KST,LST =  8  1  1  1 NREC =         1 INTLOC =   20
 II,JST,KST,LST =  9  1  1  1 NREC =         1 INTLOC =   20
 II,JST,KST,LST = 10  1  1  1 NREC =         1 INTLOC =   21
 II,JST,KST,LST = 11  1  1  1 NREC =         1 INTLOC =  865
 II,JST,KST,LST = 12  1  1  1 NREC =         1 INTLOC =  865
 TOTAL NUMBER OF NONZERO TWO-ELECTRON INTEGRALS =               28697
         16 INTEGRAL RECORDS WERE STORED ON DISK FILE  8.
  ...... END OF TWO-ELECTRON INTEGRALS .....
 CPU     0: STEP CPU TIME=     0.02 TOTAL CPU TIME=        0.0 (    0.0 MIN)
 TOTAL WALL CLOCK TIME=        0.3 SECONDS, CPU UTILIZATION IS  19.23%

          --------------------------
                 RHF SCF CALCULATION
          --------------------------

     NUCLEAR ENERGY =         1.0000000000
     MAXIT =   30     NPUNCH=    2
     EXTRAP=T  DAMP=F  SHIFT=F  RSTRCT=F  DIIS=F  DEM=F  SOSCF=T
     DENSITY MATRIX CONV=  1.00E-06
     SOSCF WILL OPTIMIZE      27 ORBITAL ROTATIONS, SOGTOL=   0.250
     MEMORY REQUIRED FOR RHF ITERS=     36828 WORDS.

 ITER EX DEM     TOTAL ENERGY        E CHANGE  DENSITY CHANGE     ORB. GRAD
   1  0  0       -1.0724474037    -1.0724474037   0.063181119   0.000000000
          ---------------START SECOND ORDER SCF---------------
   2  1  0       -1.0835076435    -0.0110602398   0.009993748   0.009809246
   3  2  0       -1.0837341602    -0.0002265167   0.002513298   0.001653881
   4  3  0       -1.0837435804    -0.0000094202   0.000061971   0.000122645
   5  4  0       -1.0837436236    -0.0000000432   0.000009199   0.000020670
   6  5  0       -1.0837436245    -0.0000000008   0.000000392   0.000000809
   7  6  0       -1.0837436245    -0.0000000000   0.000000086   0.000000123

          -----------------
          DENSITY CONVERGED
          -----------------
     TIME TO FORM FOCK OPERATORS=       0.0 SECONDS (       0.0 SEC/ITER)
     TIME TO SOLVE SCF EQUATIONS=       0.0 SECONDS (       0.0 SEC/ITER)

 FINAL RHF ENERGY IS       -1.0837436245 AFTER   7 ITERATIONS

 LZ VALUE ANALYSIS FOR THE MOS
 ----------------------------------------
 MO     1 (    1) HAS LZ(WEIGHT)= 0.00(100.0%) 
 MO     2 (    2) HAS LZ(WEIGHT)= 0.00(100.0%) 
 MO     3 (    3) HAS LZ(WEIGHT)= 0.00(100.0%) 
 MO     4 (    4) HAS LZ(WEIGHT)= 0.00(100.0%) 
 MO     5 (    5) HAS LZ(WEIGHT)= 0.00(100.0%) 
 MO     6 (    5) HAS LZ(WEIGHT)= 0.00(100.0%) 
 MO     7 (    6) HAS LZ(WEIGHT)= 0.00(100.0%) 
 MO     8 (    7) HAS LZ(WEIGHT)= 0.00(100.0%) 
 MO     9 (    7) HAS LZ(WEIGHT)= 0.00(100.0%) 
 MO    10 (    8) HAS LZ(WEIGHT)= 0.00(100.0%) 
 MO    11 (    9) HAS LZ(WEIGHT)= 0.00(100.0%) 
 MO    12 (   10) HAS LZ(WEIGHT)= 0.00(100.0%) 
 MO    13 (   11) HAS LZ(WEIGHT)= 0.00(100.0%) 
 MO    14 (   11) HAS LZ(WEIGHT)= 0.00(100.0%) 
 MO    15 (   12) HAS LZ(WEIGHT)= 0.00(100.0%) 
 MO    16 (   12) HAS LZ(WEIGHT)= 0.00(100.0%) 
 MO    17 (   13) HAS LZ(WEIGHT)= 0.00(100.0%) 
 MO    18 (   13) HAS LZ(WEIGHT)= 0.00(100.0%) 
 MO    19 (   14) HAS LZ(WEIGHT)= 0.00(100.0%) 
 MO    20 (   15) HAS LZ(WEIGHT)= 0.00(100.0%) 
 MO    21 (   15) HAS LZ(WEIGHT)= 0.00(100.0%) 
 MO    22 (   16) HAS LZ(WEIGHT)= 0.00(100.0%) 
 MO    23 (   16) HAS LZ(WEIGHT)= 0.00(100.0%) 
 MO    24 (   17) HAS LZ(WEIGHT)= 0.00(100.0%) 
 MO    25 (   18) HAS LZ(WEIGHT)= 0.00(100.0%) 
 MO    26 (   19) HAS LZ(WEIGHT)= 0.00(100.0%) 
 MO    27 (   19) HAS LZ(WEIGHT)= 0.00(100.0%) 
 MO    28 (   20) HAS LZ(WEIGHT)= 0.00(100.0%) 

          ------------
          EIGENVECTORS
          ------------

                      1          2          3          4          5
                   -0.6694     0.1901     0.2849     0.7019     0.7200
                     A          A          A          A          A   
    1  H  1  S    0.216529  -0.018725  -0.061154  -0.173640   0.000000
    2  H  1  S    0.272218   2.003322  -0.661274  -8.827188   0.000000
    3  H  1  S    0.100533  -3.588496   0.838085   3.324449   0.000000
    4  H  1  X    0.013779   0.020732  -0.022066  -0.025554   0.000000
    5  H  1  Y    0.000000   0.000000   0.000000   0.000000   0.016297
    6  H  1  Z    0.000000   0.000000   0.000000   0.000000  -0.051785
    7  H  1  X    0.010263   0.535767   0.096467  -1.981074   0.000000
    8  H  1  Y    0.000000   0.000000   0.000000   0.000000  -0.166278
    9  H  1  Z    0.000000   0.000000   0.000000   0.000000   0.528370
   10  H  1 XX    0.000497   0.017301   0.003492  -0.060063   0.000000
   11  H  1 YY   -0.000249  -0.008651  -0.001746   0.030031   0.000000
   12  H  1 ZZ   -0.000249  -0.008651  -0.001746   0.030031   0.000000
   13  H  1 XY    0.000000   0.000000   0.000000   0.000000  -0.000352
   14  H  1 XZ    0.000000   0.000000   0.000000   0.000000   0.001117
   15  H  1 YZ    0.000000   0.000000   0.000000   0.000000   0.000000
   16  H  2  S    0.216529   0.018725  -0.061154   0.173640   0.000000
   17  H  2  S    0.272218  -2.003322  -0.661274   8.827188   0.000000
   18  H  2  S    0.100533   3.588496   0.838085  -3.324449   0.000000
   19  H  2  X   -0.013779   0.020732   0.022066  -0.025554   0.000000
   20  H  2  Y    0.000000   0.000000   0.000000   0.000000   0.016297
   21  H  2  Z    0.000000   0.000000   0.000000   0.000000  -0.051785
   22  H  2  X   -0.010263   0.535767  -0.096467  -1.981074   0.000000
   23  H  2  Y    0.000000   0.000000   0.000000   0.000000  -0.166278
   24  H  2  Z    0.000000   0.000000   0.000000   0.000000   0.528370
   25  H  2 XX    0.000497  -0.017301   0.003492   0.060063   0.000000
   26  H  2 YY   -0.000249   0.008651  -0.001746  -0.030031   0.000000
   27  H  2 ZZ   -0.000249   0.008651  -0.001746  -0.030031   0.000000
   28  H  2 XY    0.000000   0.000000   0.000000   0.000000   0.000352
   29  H  2 XZ    0.000000   0.000000   0.000000   0.000000  -0.001117
   30  H  2 YZ    0.000000   0.000000   0.000000   0.000000   0.000000

                      6          7          8          9         10
                    0.7200     1.1379     1.1380     1.1380     1.5834
                     A          A          A          A          A   
    1  H  1  S    0.000000   0.095090   0.000000   0.000000   0.059667
    2  H  1  S    0.000000   0.680925   0.000000   0.000000 -26.719388
    3  H  1  S    0.000000  -0.382143   0.000000   0.000000   2.289886
    4  H  1  X    0.000000   0.050335   0.000000   0.000000   0.147999
    5  H  1  Y   -0.051785   0.000000   0.021509  -0.092934   0.000000
    6  H  1  Z   -0.016297   0.000000  -0.092934  -0.021509   0.000000
    7  H  1  X    0.000000  -1.490721   0.000000   0.000000  -8.293373
    8  H  1  Y    0.528370   0.000000   0.459971  -1.987454   0.000000
    9  H  1  Z    0.166278   0.000000  -1.987454  -0.459971   0.000000
   10  H  1 XX    0.000000  -0.160683   0.000000   0.000000  -0.071853
   11  H  1 YY    0.000000   0.080341   0.000000   0.000000   0.035927
   12  H  1 ZZ    0.000000   0.080341   0.000000   0.000000   0.035927
   13  H  1 XY    0.001117   0.000000   0.061066  -0.263857   0.000000
   14  H  1 XZ    0.000352   0.000000  -0.263857  -0.061066   0.000000
   15  H  1 YZ    0.000000   0.000000   0.000000   0.000000   0.000000
   16  H  2  S    0.000000   0.095090   0.000000   0.000000  -0.059667
   17  H  2  S    0.000000   0.680925   0.000000   0.000000  26.719388
   18  H  2  S    0.000000  -0.382143   0.000000   0.000000  -2.289886
   19  H  2  X    0.000000  -0.050335   0.000000   0.000000   0.147999
   20  H  2  Y   -0.051785   0.000000  -0.021509   0.092934   0.000000
   21  H  2  Z   -0.016297   0.000000   0.092934   0.021509   0.000000
   22  H  2  X    0.000000   1.490721   0.000000   0.000000  -8.293373
   23  H  2  Y    0.528370   0.000000  -0.459971   1.987454   0.000000
   24  H  2  Z    0.166278   0.000000   1.987454   0.459971   0.000000
   25  H  2 XX    0.000000  -0.160683   0.000000   0.000000   0.071853
   26  H  2 YY    0.000000   0.080341   0.000000   0.000000  -0.035927
   27  H  2 ZZ    0.000000   0.080341   0.000000   0.000000  -0.035927
   28  H  2 XY   -0.001117   0.000000   0.061066  -0.263857   0.000000
   29  H  2 XZ   -0.000352   0.000000  -0.263857  -0.061066   0.000000
   30  H  2 YZ    0.000000   0.000000   0.000000   0.000000   0.000000

                     11         12         13         14         15
                    2.2586     2.7536     3.2410     3.2410     3.5087
                     A          A          A          A          A   
    1  H  1  S    1.027800  -0.170438   0.000000   0.000000   0.000000
    2  H  1  S   -0.958015  -8.462558   0.000000   0.000000   0.000000
    3  H  1  S    0.355371  -0.512066   0.000000   0.000000   0.000000
    4  H  1  X    0.053511   0.851398   0.000000   0.000000   0.000000
    5  H  1  Y    0.000000   0.000000   0.000000   0.000000   0.697011
    6  H  1  Z    0.000000   0.000000   0.000000   0.000000  -0.020747
    7  H  1  X   -0.562584  -3.327217   0.000000   0.000000   0.000000
    8  H  1  Y    0.000000   0.000000   0.000000   0.000000  -0.389281
    9  H  1  Z    0.000000   0.000000   0.000000   0.000000   0.011587
   10  H  1 XX   -0.045887   0.351378   0.000000   0.000000   0.000000
   11  H  1 YY    0.022943  -0.175689   0.467129   0.133098   0.000000
   12  H  1 ZZ    0.022943  -0.175689  -0.467129  -0.133098   0.000000
   13  H  1 XY    0.000000   0.000000   0.000000   0.000000   0.103794
   14  H  1 XZ    0.000000   0.000000   0.000000   0.000000  -0.003090
   15  H  1 YZ    0.000000   0.000000  -0.153688   0.539395   0.000000
   16  H  2  S    1.027800   0.170438   0.000000   0.000000   0.000000
   17  H  2  S   -0.958015   8.462558   0.000000   0.000000   0.000000
   18  H  2  S    0.355371   0.512066   0.000000   0.000000   0.000000
   19  H  2  X   -0.053511   0.851398   0.000000   0.000000   0.000000
   20  H  2  Y    0.000000   0.000000   0.000000   0.000000   0.697011
   21  H  2  Z    0.000000   0.000000   0.000000   0.000000  -0.020747
   22  H  2  X    0.562584  -3.327217   0.000000   0.000000   0.000000
   23  H  2  Y    0.000000   0.000000   0.000000   0.000000  -0.389281
   24  H  2  Z    0.000000   0.000000   0.000000   0.000000   0.011587
   25  H  2 XX   -0.045887  -0.351378   0.000000   0.000000   0.000000
   26  H  2 YY    0.022943   0.175689   0.467129   0.133098   0.000000
   27  H  2 ZZ    0.022943   0.175689  -0.467129  -0.133098   0.000000
   28  H  2 XY    0.000000   0.000000   0.000000   0.000000  -0.103794
   29  H  2 XZ    0.000000   0.000000   0.000000   0.000000   0.003090
   30  H  2 YZ    0.000000   0.000000  -0.153688   0.539395   0.000000

                     16         17         18         19         20
                    3.5087     3.6649     3.6649     3.7285     4.3065
                     A          A          A          A          A   
    1  H  1  S    0.000000   0.000000   0.000000  -0.514627   0.000000
    2  H  1  S    0.000000   0.000000   0.000000  -0.065327   0.000000
    3  H  1  S    0.000000   0.000000   0.000000   0.130304   0.000000
    4  H  1  X    0.000000   0.000000   0.000000  -0.468411   0.000000
    5  H  1  Y    0.020747   0.061053   0.318197   0.000000   0.000000
    6  H  1  Z    0.697011   0.318197  -0.061053   0.000000   0.000000
    7  H  1  X    0.000000   0.000000   0.000000   1.304869   0.000000
    8  H  1  Y   -0.011587   0.316173   1.647834   0.000000   0.000000
    9  H  1  Z   -0.389281   1.647834  -0.316173   0.000000   0.000000
   10  H  1 XX    0.000000   0.000000   0.000000   0.835976   0.000000
   11  H  1 YY    0.000000   0.000000   0.000000  -0.417988  -0.004260
   12  H  1 ZZ    0.000000   0.000000   0.000000  -0.417988   0.004260
   13  H  1 XY    0.003090   0.246810   1.286328   0.000000   0.000000
   14  H  1 XZ    0.103794   1.286328  -0.246810   0.000000   0.000000
   15  H  1 YZ    0.000000   0.000000   0.000000   0.000000   1.103616
   16  H  2  S    0.000000   0.000000   0.000000  -0.514627   0.000000
   17  H  2  S    0.000000   0.000000   0.000000  -0.065327   0.000000
   18  H  2  S    0.000000   0.000000   0.000000   0.130304   0.000000
   19  H  2  X    0.000000   0.000000   0.000000   0.468411   0.000000
   20  H  2  Y    0.020747  -0.061053  -0.318197   0.000000   0.000000
   21  H  2  Z    0.697011  -0.318197   0.061053   0.000000   0.000000
   22  H  2  X    0.000000   0.000000   0.000000  -1.304869   0.000000
   23  H  2  Y   -0.011587  -0.316173  -1.647834   0.000000   0.000000
   24  H  2  Z   -0.389281  -1.647834   0.316173   0.000000   0.000000
   25  H  2 XX    0.000000   0.000000   0.000000   0.835976   0.000000
   26  H  2 YY    0.000000   0.000000   0.000000  -0.417988   0.004260
   27  H  2 ZZ    0.000000   0.000000   0.000000  -0.417988  -0.004260
   28  H  2 XY   -0.003090   0.246810   1.286328   0.000000   0.000000
   29  H  2 XZ   -0.103794   1.286328  -0.246810   0.000000   0.000000
   30  H  2 YZ    0.000000   0.000000   0.000000   0.000000  -1.103616

                     21         22         23         24         25
                    4.3065     4.3348     4.3348     5.1712     6.6860
                     A          A          A          A          A   
    1  H  1  S    0.000000   0.000000   0.000000  -0.681072   1.768508
    2  H  1  S    0.000000   0.000000   0.000000 -16.281616  -0.893640
    3  H  1  S    0.000000   0.000000   0.000000   0.909349   0.169958
    4  H  1  X    0.000000   0.000000   0.000000   0.773415  -0.861067
    5  H  1  Y    0.000000  -0.510102   0.031747   0.000000   0.000000
    6  H  1  Z    0.000000  -0.031747  -0.510102   0.000000   0.000000
    7  H  1  X    0.000000   0.000000   0.000000  -5.539093  -1.052321
    8  H  1  Y    0.000000   0.157439  -0.009799   0.000000   0.000000
    9  H  1  Z    0.000000   0.009799   0.157439   0.000000   0.000000
   10  H  1 XX    0.000000   0.000000   0.000000  -0.845661  -1.380447
   11  H  1 YY    0.955760   0.000000   0.000000   0.422830   0.690224
   12  H  1 ZZ   -0.955760   0.000000   0.000000   0.422830   0.690224
   13  H  1 XY    0.000000   0.806653  -0.050204   0.000000   0.000000
   14  H  1 XZ    0.000000   0.050204   0.806653   0.000000   0.000000
   15  H  1 YZ    0.004920   0.000000   0.000000   0.000000   0.000000
   16  H  2  S    0.000000   0.000000   0.000000   0.681072   1.768508
   17  H  2  S    0.000000   0.000000   0.000000  16.281616  -0.893640
   18  H  2  S    0.000000   0.000000   0.000000  -0.909349   0.169958
   19  H  2  X    0.000000   0.000000   0.000000   0.773415   0.861067
   20  H  2  Y    0.000000  -0.510102   0.031747   0.000000   0.000000
   21  H  2  Z    0.000000  -0.031747  -0.510102   0.000000   0.000000
   22  H  2  X    0.000000   0.000000   0.000000  -5.539093   1.052321
   23  H  2  Y    0.000000   0.157439  -0.009799   0.000000   0.000000
   24  H  2  Z    0.000000   0.009799   0.157439   0.000000   0.000000
   25  H  2 XX    0.000000   0.000000   0.000000   0.845661  -1.380447
   26  H  2 YY   -0.955760   0.000000   0.000000  -0.422830   0.690224
   27  H  2 ZZ    0.955760   0.000000   0.000000  -0.422830   0.690224
   28  H  2 XY    0.000000  -0.806653   0.050204   0.000000   0.000000
   29  H  2 XZ    0.000000  -0.050204  -0.806653   0.000000   0.000000
   30  H  2 YZ   -0.004920   0.000000   0.000000   0.000000   0.000000

                     26         27         28
                    6.7394     6.7394     9.2239
                     A          A          A   
    1  H  1  S    0.000000   0.000000  -3.443842
    2  H  1  S    0.000000   0.000000  -1.186652
    3  H  1  S    0.000000   0.000000   0.577801
    4  H  1  X    0.000000   0.000000  -2.484230
    5  H  1  Y    2.192360  -1.103902   0.000000
    6  H  1  Z    1.103902   2.192360   0.000000
    7  H  1  X    0.000000   0.000000  -0.129966
    8  H  1  Y    0.809564  -0.407633   0.000000
    9  H  1  Z    0.407633   0.809564   0.000000
   10  H  1 XX    0.000000   0.000000  -0.724569
   11  H  1 YY    0.000000   0.000000   0.362284
   12  H  1 ZZ    0.000000   0.000000   0.362284
   13  H  1 XY    1.626092  -0.818773   0.000000
   14  H  1 XZ    0.818773   1.626092   0.000000
   15  H  1 YZ    0.000000   0.000000   0.000000
   16  H  2  S    0.000000   0.000000   3.443842
   17  H  2  S    0.000000   0.000000   1.186652
   18  H  2  S    0.000000   0.000000  -0.577801
   19  H  2  X    0.000000   0.000000  -2.484230
   20  H  2  Y   -2.192360   1.103902   0.000000
   21  H  2  Z   -1.103902  -2.192360   0.000000
   22  H  2  X    0.000000   0.000000  -0.129966
   23  H  2  Y   -0.809564   0.407633   0.000000
   24  H  2  Z   -0.407633  -0.809564   0.000000
   25  H  2 XX    0.000000   0.000000   0.724569
   26  H  2 YY    0.000000   0.000000  -0.362284
   27  H  2 ZZ    0.000000   0.000000  -0.362284
   28  H  2 XY    1.626092  -0.818773   0.000000
   29  H  2 XZ    0.818773   1.626092   0.000000
   30  H  2 YZ    0.000000   0.000000   0.000000
 ...... END OF RHF CALCULATION ......
 CPU     0: STEP CPU TIME=     0.01 TOTAL CPU TIME=        0.1 (    0.0 MIN)
 TOTAL WALL CLOCK TIME=        0.6 SECONDS, CPU UTILIZATION IS  10.91%

     ----------------------------------------------------------------
     PROPERTY VALUES FOR THE RHF   SELF-CONSISTENT FIELD WAVEFUNCTION
     ----------------------------------------------------------------

          -----------------
          ENERGY COMPONENTS
          -----------------

         WAVEFUNCTION NORMALIZATION =       1.0000000000

                ONE ELECTRON ENERGY =      -2.8287580547
                TWO ELECTRON ENERGY =       0.7450144303
           NUCLEAR REPULSION ENERGY =       1.0000000000
                                      ------------------
                       TOTAL ENERGY =      -1.0837436245

 ELECTRON-ELECTRON POTENTIAL ENERGY =       0.7450144303
  NUCLEUS-ELECTRON POTENTIAL ENERGY =      -4.2282367843
   NUCLEUS-NUCLEUS POTENTIAL ENERGY =       1.0000000000
                                      ------------------
             TOTAL POTENTIAL ENERGY =      -2.4832223540
               TOTAL KINETIC ENERGY =       1.3994787296
                 VIRIAL RATIO (V/T) =       1.7743909225

  ...... PI ENERGY ANALYSIS ......

 ENERGY ANALYSIS:
            FOCK ENERGY=     -1.3387291763
          BARE H ENERGY=     -2.8287580547
     ELECTRONIC ENERGY =     -2.0837436155
         KINETIC ENERGY=      1.3994787296
          N-N REPULSION=      1.0000000000
           TOTAL ENERGY=     -1.0837436155
        SIGMA PART(1+2)=     -2.0837436155
               (K,V1,2)=      1.3994787296     -4.2282367843      0.7450144392
           PI PART(1+2)=      0.0000000000
               (K,V1,2)=      0.0000000000      0.0000000000      0.0000000000
  SIGMA SKELETON, ERROR=     -1.0837436155      0.0000000000
             MIXED PART= 0.00000E+00 0.00000E+00 0.00000E+00 0.00000E+00
 ...... END OF PI ENERGY ANALYSIS ......

          ---------------------------------------
          MULLIKEN AND LOWDIN POPULATION ANALYSES
          ---------------------------------------

               ----- POPULATIONS IN EACH AO -----
                             MULLIKEN      LOWDIN
              1  H  1  S      0.32505     0.21740
              2  H  1  S      0.50921     0.28798
              3  H  1  S      0.15409     0.18527
              4  H  1  X      0.00591     0.01470
              5  H  1  Y      0.00000     0.00000
              6  H  1  Z      0.00000     0.00000
              7  H  1  X      0.00563     0.01882
              8  H  1  Y      0.00000     0.00000
              9  H  1  Z      0.00000     0.00000
             10  H  1 XX      0.00003     0.13565
             11  H  1 YY      0.00008     0.07009
             12  H  1 ZZ      0.00000     0.07009
             13  H  1 XY      0.00000     0.00000
             14  H  1 XZ      0.00000     0.00000
             15  H  1 YZ      0.00000     0.00000
             16  H  2  S      0.32505     0.21740
             17  H  2  S      0.50921     0.28798
             18  H  2  S      0.15409     0.18527
             19  H  2  X      0.00591     0.01470
             20  H  2  Y      0.00000     0.00000
             21  H  2  Z      0.00000     0.00000
             22  H  2  X      0.00563     0.01882
             23  H  2  Y      0.00000     0.00000
             24  H  2  Z      0.00000     0.00000
             25  H  2 XX      0.00003     0.13565
             26  H  2 YY      0.00008     0.07009
             27  H  2 ZZ      0.00000     0.07009
             28  H  2 XY      0.00000     0.00000
             29  H  2 XZ      0.00000     0.00000
             30  H  2 YZ      0.00000     0.00000

          ----- MULLIKEN ATOMIC OVERLAP POPULATIONS -----
          (OFF-DIAGONAL ELEMENTS NEED TO BE MULTIPLIED BY 2)

             1           2

    1    0.5485314
    2    0.4514686   0.5485314

          TOTAL MULLIKEN AND LOWDIN ATOMIC POPULATIONS
       ATOM         MULL.POP.    CHARGE          LOW.POP.     CHARGE
    1 H             1.000000   -0.000000         1.000000   -0.000000
    2 H             1.000000   -0.000000         1.000000   -0.000000

          MULLIKEN SPHERICAL HARMONIC POPULATIONS
       ATOM           S       P       D      F      G      H      I    TOTAL
    1 H             0.99    0.01    0.00   0.00   0.00   0.00   0.00    1.00
    2 H             0.99    0.01    0.00   0.00   0.00   0.00   0.00    1.00

          ---------------------
          ELECTROSTATIC MOMENTS
          ---------------------

 POINT   1           X           Y           Z (BOHR)    CHARGE
                 0.500000    0.000000    0.000000       -0.00 (A.U.)
         DX          DY          DZ         /D/  (DEBYE)
     0.000000    0.000000    0.000000    0.000000
 ...... END OF PROPERTY EVALUATION ......
 CPU     0: STEP CPU TIME=     0.00 TOTAL CPU TIME=        0.1 (    0.0 MIN)
 TOTAL WALL CLOCK TIME=        0.6 SECONDS, CPU UTILIZATION IS   9.68%

 MXVEC CANNOT BE BIGGER THAN THE NUMBER OF CIS CONFIGS
 SETTING MXVEC = NCFG


          ---------------------------------------------
             ATOMIC ORBITAL BASIS CI-SINGLES ENERGY
             PROGRAM WRITTEN BY SIMON P. WEBB
          ---------------------------------------------

 # CORE ORBITALS      =    0
 # OCCUPIED ORBITALS  =    1
 # MOLECULAR ORBITALS =   28
 # BASIS FUNCTIONS    =   30

 NUMBER OF CIS SPIN-ADAPTED ANTISYMMETRIZED PRODUCTS (SAPS) IS      27

 APPROXIMATING CIS HAMILTONIAN DIAGONAL ELEMENTS USING ONLY ORBITAL ENERGIES

 -CIS- HAM. DIAGONAL ELEMENTS  TOOK      0.000 SECONDS

 MIN MEMORY REQ. FOR CIS ENERGY FOCK-LIKE BUILDS =      1800 WORDS
 MEMORY REQ. FOR SINGLE BATCH BUILDS             =     48600 WORDS
 MEMORY AVAILABLE                                =    958955 WORDS

 SINGLE BATCH ENERGY CALCULATION WILL BE PERFORMED

 UNIT VECTOR GUESS AT CIS COEFFICIENTS ...

 USING IN MEMORY DIAGONALIZTION TO FIND CIS EIGENVALUES AND EIGENVECTORS ...

 STATE    1 ENERGY=       -0.4992014226
 STATE    2 ENERGY=       -0.3907030310
 STATE    3 ENERGY=       -0.0788558698
 STATE    4 ENERGY=       -0.0788558698
 STATE    5 ENERGY=       -0.0402636825


        --------------------------------------------------------
        RESULTS FROM SPIN-ADAPTED ANTISYMMETRIZED PRODUCT (SAPS)
        BASED ATOMIC ORBITAL CI-SINGLES ENERGY CALCULATION
        --------------------------------------------------------

 PRINTING CIS COEFFICIENTS LARGER THAN  0.050000

 RHF REFERENCE ENERGY  =        -1.0837436245


 EXCITED STATE   1  ENERGY=        -0.4992014226  S = 0.0  SPACE SYM = A   

          ----------------------------------------------
          SINGLE EXCITATION               SAP COEFFICENT
          FROM MO     TO MO
          ----------------------------------------------
             1          2                   0.99645956
             1          4                   0.08282465
          ----------------------------------------------


 EXCITED STATE   2  ENERGY=        -0.3907030310  S = 0.0  SPACE SYM = A   

          ----------------------------------------------
          SINGLE EXCITATION               SAP COEFFICENT
          FROM MO     TO MO
          ----------------------------------------------
             1          3                   0.99998586
          ----------------------------------------------


 EXCITED STATE   3  ENERGY=        -0.0788558698  S = 0.0  SPACE SYM = A   

          ----------------------------------------------
          SINGLE EXCITATION               SAP COEFFICENT
          FROM MO     TO MO
          ----------------------------------------------
             1          5                   0.99947311
          ----------------------------------------------


 EXCITED STATE   4  ENERGY=        -0.0788558698  S = 0.0  SPACE SYM = A   

          ----------------------------------------------
          SINGLE EXCITATION               SAP COEFFICENT
          FROM MO     TO MO
          ----------------------------------------------
             1          6                  -0.99947311
          ----------------------------------------------


 EXCITED STATE   5  ENERGY=        -0.0402636825  S = 0.0  SPACE SYM = A   

          ----------------------------------------------
          SINGLE EXCITATION               SAP COEFFICENT
          FROM MO     TO MO
          ----------------------------------------------
             1          2                   0.08248833
             1          4                  -0.99624653
          ----------------------------------------------

  ---------------------------------------------------------------------
                    CI-SINGLES EXCITATION ENERGIES
  STATE       HARTREE        EV      KCAL/MOL       CM-1         NM
  ---------------------------------------------------------------------
   1A     0.5845422019    15.9062    366.8058     128292.18      77.95
   1A     0.6930405934    18.8586    434.8896     152104.83      65.74
   1A     1.0048877546    27.3444    630.5767     220547.37      45.34
   1A     1.0048877546    27.3444    630.5767     220547.37      45.34
   1A     1.0434799419    28.3945    654.7936     229017.38      43.66

 -CIS- ENERGY                  TOOK      0.010 SECONDS

  ---------------------------------------------------------------------
                    CIS TRANSITION DIPOLE MOMENTS AND
                    EXPECTATION VALUES OF DIPOLE MOMENTS
  ---------------------------------------------------------------------

 GROUND STATE (SCF) DIPOLE=     0.000000     0.000000     0.000000 DEBYE

 TRANSITION FROM THE GROUND STATE TO EXCITED STATE  1

 STATE MULTIPLICITIES =   1  1
 STATE ENERGIES =         -1.0837436245       -0.4992014226
 EXCITATION ENERGY =  3.8461E+15 [1/SEC] =   128292.18 [1/CM] =     15.91 [EV]
                            X           Y           Z           NORM
 TRANSITION DIPOLE =    1.037818    0.000000   -0.000000    1.037818 E*BOHR
 TRANSITION DIPOLE =    2.637890    0.000000   -0.000000    2.637890 DEBYE
 OSCILLATOR STRENGTH =    0.419727
 EINSTEIN COEFFICIENTS: A=  4.6080E+09 1/SEC; B=  4.3712E+08 SEC/G

 TRANSITION FROM THE GROUND STATE TO EXCITED STATE  2

 STATE MULTIPLICITIES =   1  1
 STATE ENERGIES =         -1.0837436245       -0.3907030310
 EXCITATION ENERGY =  4.5600E+15 [1/SEC] =   152104.83 [1/CM] =     18.86 [EV]
                            X           Y           Z           NORM
 TRANSITION DIPOLE =    0.000000   -0.000000   -0.000000    0.000000 E*BOHR
 TRANSITION DIPOLE =    0.000000   -0.000000   -0.000000    0.000000 DEBYE
 OSCILLATOR STRENGTH =    0.000000
 EINSTEIN COEFFICIENTS: A=  8.4959E-21 1/SEC; B=  4.8358E-22 SEC/G

 TRANSITION FROM THE GROUND STATE TO EXCITED STATE  3

 STATE MULTIPLICITIES =   1  1
 STATE ENERGIES =         -1.0837436245       -0.0788558698
 EXCITATION ENERGY =  6.6118E+15 [1/SEC] =   220547.37 [1/CM] =     27.34 [EV]
                            X           Y           Z           NORM
 TRANSITION DIPOLE =    0.000000   -0.355550    1.014025    1.074552 E*BOHR
 TRANSITION DIPOLE =    0.000000   -0.903724    2.577414    2.731259 DEBYE
 OSCILLATOR STRENGTH =    0.773537
 EINSTEIN COEFFICIENTS: A=  2.5098E+10 1/SEC; B=  4.6861E+08 SEC/G

 TRANSITION FROM THE GROUND STATE TO EXCITED STATE  4

 STATE MULTIPLICITIES =   1  1
 STATE ENERGIES =         -1.0837436245       -0.0788558698
 EXCITATION ENERGY =  6.6118E+15 [1/SEC] =   220547.37 [1/CM] =     27.34 [EV]
                            X           Y           Z           NORM
 TRANSITION DIPOLE =   -0.000000   -1.014025   -0.355550    1.074552 E*BOHR
 TRANSITION DIPOLE =   -0.000000   -2.577414   -0.903724    2.731259 DEBYE
 OSCILLATOR STRENGTH =    0.773537
 EINSTEIN COEFFICIENTS: A=  2.5098E+10 1/SEC; B=  4.6861E+08 SEC/G

 TRANSITION FROM THE GROUND STATE TO EXCITED STATE  5

 STATE MULTIPLICITIES =   1  1
 STATE ENERGIES =         -1.0837436245       -0.0402636825
 EXCITATION ENERGY =  6.8658E+15 [1/SEC] =   229017.38 [1/CM] =     28.39 [EV]
                            X           Y           Z           NORM
 TRANSITION DIPOLE =   -0.657426    0.000000   -0.000000    0.657426 E*BOHR
 TRANSITION DIPOLE =   -1.671024    0.000000   -0.000000    1.671024 DEBYE
 OSCILLATOR STRENGTH =    0.300668
 EINSTEIN COEFFICIENTS: A=  1.0519E+10 1/SEC; B=  1.7541E+08 SEC/G

 EXPECTATION VALUE DIPOLE MOMENT FOR EXCITED STATE  1

 STATE MULTIPLICITY =   1
 STATE ENERGY =         -0.4992014226
                            X           Y           Z           NORM
      STATE DIPOLE =   -0.000000   -0.000000    0.000000    0.000000 E*BOHR
      STATE DIPOLE =   -0.000000   -0.000000    0.000000    0.000000 DEBYE

 TRANSITION BETWEEN EXCITED STATES   1 AND  2

 STATE MULTIPLICITIES=  1  1
 STATE ENERGIES =         -0.4992014226       -0.3907030310
 TRANSITION ENERGY =  7.1389E+14 [1/SEC] =    23812.64 [1/CM] =        2.95 [EV]
                            X           Y           Z           NORM
 TRANSITION DIPOLE =    1.686985    0.000000    0.000000    1.686985 E*BOHR
 TRANSITION DIPOLE =    4.287920    0.000000    0.000000    4.287920 DEBYE
 OSCILLATOR STRENGTH =    0.205852
 EINSTEIN COEFFICIENTS: A=  7.7861E+07 1/SEC; B=  1.1550E+09 SEC/G

 TRANSITION BETWEEN EXCITED STATES   1 AND  3

 STATE MULTIPLICITIES=  1  1
 STATE ENERGIES =         -0.4992014226       -0.0788558698
 TRANSITION ENERGY =  2.7657E+15 [1/SEC] =    92255.19 [1/CM] =       11.44 [EV]
                            X           Y           Z           NORM
 TRANSITION DIPOLE =   -0.000000    0.000000   -0.000000    0.000000 E*BOHR
 TRANSITION DIPOLE =   -0.000000    0.000000   -0.000000    0.000000 DEBYE
 OSCILLATOR STRENGTH =    0.000000
 EINSTEIN COEFFICIENTS: A=  7.2652E-21 1/SEC; B=  1.8533E-21 SEC/G

 TRANSITION BETWEEN EXCITED STATES   1 AND  4

 STATE MULTIPLICITIES=  1  1
 STATE ENERGIES =         -0.4992014226       -0.0788558698
 TRANSITION ENERGY =  2.7657E+15 [1/SEC] =    92255.19 [1/CM] =       11.44 [EV]
                            X           Y           Z           NORM
 TRANSITION DIPOLE =   -0.000000    0.000000    0.000000    0.000000 E*BOHR
 TRANSITION DIPOLE =   -0.000000    0.000000    0.000000    0.000000 DEBYE
 OSCILLATOR STRENGTH =    0.000000
 EINSTEIN COEFFICIENTS: A=  1.2795E-20 1/SEC; B=  3.2640E-21 SEC/G

 TRANSITION BETWEEN EXCITED STATES   1 AND  5

 STATE MULTIPLICITIES=  1  1
 STATE ENERGIES =         -0.4992014226       -0.0402636825
 TRANSITION ENERGY =  3.0197E+15 [1/SEC] =   100725.19 [1/CM] =       12.49 [EV]
                            X           Y           Z           NORM
 TRANSITION DIPOLE =    0.000000   -0.000000    0.000000    0.000000 E*BOHR
 TRANSITION DIPOLE =    0.000000   -0.000000    0.000000    0.000000 DEBYE
 OSCILLATOR STRENGTH =    0.000000
 EINSTEIN COEFFICIENTS: A=  3.2023E-19 1/SEC; B=  6.2768E-20 SEC/G

 EXPECTATION VALUE DIPOLE MOMENT FOR EXCITED STATE  2

 STATE MULTIPLICITY =   1
 STATE ENERGY =         -0.3907030310
                            X           Y           Z           NORM
      STATE DIPOLE =   -0.000000   -0.000000   -0.000000    0.000000 E*BOHR
      STATE DIPOLE =   -0.000000   -0.000000   -0.000000    0.000000 DEBYE

 TRANSITION BETWEEN EXCITED STATES   2 AND  3

 STATE MULTIPLICITIES=  1  1
 STATE ENERGIES =         -0.3907030310       -0.0788558698
 TRANSITION ENERGY =  2.0519E+15 [1/SEC] =    68442.54 [1/CM] =        8.49 [EV]
                            X           Y           Z           NORM
 TRANSITION DIPOLE =   -0.000000   -0.169689    0.483952    0.512839 E*BOHR
 TRANSITION DIPOLE =   -0.000000   -0.431310    1.230093    1.303517 DEBYE
 OSCILLATOR STRENGTH =    0.054678
 EINSTEIN COEFFICIENTS: A=  1.7085E+08 1/SEC; B=  1.0674E+08 SEC/G

 TRANSITION BETWEEN EXCITED STATES   2 AND  4

 STATE MULTIPLICITIES=  1  1
 STATE ENERGIES =         -0.3907030310       -0.0788558698
 TRANSITION ENERGY =  2.0519E+15 [1/SEC] =    68442.54 [1/CM] =        8.49 [EV]
                            X           Y           Z           NORM
 TRANSITION DIPOLE =    0.000000   -0.483952   -0.169689    0.512839 E*BOHR
 TRANSITION DIPOLE =    0.000000   -1.230093   -0.431310    1.303517 DEBYE
 OSCILLATOR STRENGTH =    0.054678
 EINSTEIN COEFFICIENTS: A=  1.7085E+08 1/SEC; B=  1.0674E+08 SEC/G

 TRANSITION BETWEEN EXCITED STATES   2 AND  5

 STATE MULTIPLICITIES=  1  1
 STATE ENERGIES =         -0.3907030310       -0.0402636825
 TRANSITION ENERGY =  2.3058E+15 [1/SEC] =    76912.55 [1/CM] =        9.54 [EV]
                            X           Y           Z           NORM
 TRANSITION DIPOLE =    0.915746    0.000000    0.000000    0.915746 E*BOHR
 TRANSITION DIPOLE =    2.327611    0.000000    0.000000    2.327611 DEBYE
 OSCILLATOR STRENGTH =    0.195917
 EINSTEIN COEFFICIENTS: A=  7.7306E+08 1/SEC; B=  3.4033E+08 SEC/G

 EXPECTATION VALUE DIPOLE MOMENT FOR EXCITED STATE  3

 STATE MULTIPLICITY =   1
 STATE ENERGY =         -0.0788558698
                            X           Y           Z           NORM
      STATE DIPOLE =   -0.000000    0.000000   -0.000000    0.000000 E*BOHR
      STATE DIPOLE =   -0.000000    0.000000   -0.000000    0.000000 DEBYE

 TRANSITION BETWEEN EXCITED STATES   3 AND  4

 STATE MULTIPLICITIES=  1  1
 STATE ENERGIES =         -0.0788558698       -0.0788558698
 TRANSITION ENERGY =  8.4737E+01 [1/SEC] =        0.00 [1/CM] =        0.00 [EV]
                            X           Y           Z           NORM
 TRANSITION DIPOLE =   -0.000000   -0.000000    0.000000    0.000000 E*BOHR
 TRANSITION DIPOLE =   -0.000000   -0.000000    0.000000    0.000000 DEBYE
 OSCILLATOR STRENGTH =    0.000000
 EINSTEIN COEFFICIENTS: A=  2.9220E-61 1/SEC; B=  2.5918E-21 SEC/G

 TRANSITION BETWEEN EXCITED STATES   3 AND  5

 STATE MULTIPLICITIES=  1  1
 STATE ENERGIES =         -0.0788558698       -0.0402636825
 TRANSITION ENERGY =  2.5392E+14 [1/SEC] =     8470.01 [1/CM] =        1.05 [EV]
                            X           Y           Z           NORM
 TRANSITION DIPOLE =    0.000000   -0.000000    0.000000    0.000000 E*BOHR
 TRANSITION DIPOLE =    0.000000   -0.000000    0.000000    0.000000 DEBYE
 OSCILLATOR STRENGTH =    0.000000
 EINSTEIN COEFFICIENTS: A=  3.1641E-24 1/SEC; B=  1.0430E-21 SEC/G

 EXPECTATION VALUE DIPOLE MOMENT FOR EXCITED STATE  4

 STATE MULTIPLICITY =   1
 STATE ENERGY =         -0.0788558698
                            X           Y           Z           NORM
      STATE DIPOLE =    0.000000   -0.000000   -0.000000    0.000000 E*BOHR
      STATE DIPOLE =    0.000000   -0.000000   -0.000000    0.000000 DEBYE

 TRANSITION BETWEEN EXCITED STATES   4 AND  5

 STATE MULTIPLICITIES=  1  1
 STATE ENERGIES =         -0.0788558698       -0.0402636825
 TRANSITION ENERGY =  2.5392E+14 [1/SEC] =     8470.01 [1/CM] =        1.05 [EV]
                            X           Y           Z           NORM
 TRANSITION DIPOLE =    0.000000   -0.000000   -0.000000    0.000000 E*BOHR
 TRANSITION DIPOLE =    0.000000   -0.000000   -0.000000    0.000000 DEBYE
 OSCILLATOR STRENGTH =    0.000000
 EINSTEIN COEFFICIENTS: A=  2.3343E-23 1/SEC; B=  7.6948E-21 SEC/G

 EXPECTATION VALUE DIPOLE MOMENT FOR EXCITED STATE  5

 STATE MULTIPLICITY =   1
 STATE ENERGY =         -0.0402636825
                            X           Y           Z           NORM
      STATE DIPOLE =   -0.000000    0.000000    0.000000    0.000000 E*BOHR
      STATE DIPOLE =   -0.000000    0.000000    0.000000    0.000000 DEBYE

 CIS NATURAL ORBITAL OCCUPATION NUMBERS FOR EXCITED STATE    1 ARE
  1.0000 1.0000 0.0000 0.0000 0.0000 0.0000 0.0000 0.0000 0.0000 0.0000
  0.0000 0.0000 0.0000 0.0000 0.0000 0.0000 0.0000 0.0000 0.0000 0.0000
  0.0000 0.0000 0.0000 0.0000-0.0000-0.0000-0.0000-0.0000
 THERE ARE     1.0000 ELECTRONS IN PRINCIPAL CIS NATURAL ORBITALS.
 THERE ARE     1.0000 ELECTRONS IN SECONDARY CIS NATURAL ORBITALS.

          --------------------
          CIS NATURAL ORBITALS
          --------------------

                      1          2          3          4          5

                    1.0000     1.0000     0.0000     0.0000     0.0000

    1  H  1  S    0.216623  -0.029079   1.659273   2.127758  -0.667834
    2  H  1  S    0.268673   1.108663   1.893988   1.511257   0.288556
    3  H  1  S    0.111006  -3.273138   0.268672  -1.399833  -0.051241
    4  H  1  X    0.013744   0.010927   0.009533   1.041241  -0.224790
    5  H  1  Y    0.000000  -0.000000   0.075536   0.140224  -0.018304
    6  H  1  Z    0.000000   0.000000  -0.038595  -0.062768   0.008853
    7  H  1  X    0.009211   0.328709   1.635529  -1.047327   0.688910
    8  H  1  Y    0.000000  -0.000000   0.081379   0.151071  -0.019720
    9  H  1  Z    0.000000   0.000000  -0.041580  -0.067623   0.009538
   10  H  1 XX    0.000471   0.008227   0.515321  -0.537093   0.414497
   11  H  1 YY   -0.000235  -0.004113  -0.257392   0.268760  -0.207610
   12  H  1 ZZ   -0.000235  -0.004113  -0.257929   0.268333  -0.206887
   13  H  1 XY    0.000000  -0.000000   0.037581   0.069765  -0.009107
   14  H  1 XZ    0.000000   0.000000  -0.019202  -0.031228   0.004405
   15  H  1 YZ    0.000000  -0.000000   0.027858   0.022140  -0.037564
   16  H  2  S    0.216432   0.030464  -1.713242  -0.263798  -0.322376
   17  H  2  S    0.275761  -1.106922  -2.539725  -1.581918   1.191753
   18  H  2  S    0.090060   3.273782   0.233785   0.770972  -1.417994
   19  H  2  X   -0.013814   0.010839   0.495264   1.301482  -0.596735
   20  H  2  Y    0.000000  -0.000000   0.075536   0.140224  -0.018304
   21  H  2  Z    0.000000   0.000000  -0.038595  -0.062768   0.008853
   22  H  2  X   -0.011314   0.328644   0.406752   1.184798  -0.399508
   23  H  2  Y    0.000000  -0.000000   0.081379   0.151071  -0.019720
   24  H  2  Z    0.000000   0.000000  -0.041580  -0.067623   0.009538
   25  H  2 XX    0.000523  -0.008224  -0.269303  -1.162647   0.573888
   26  H  2 YY   -0.000262   0.004112   0.134920   0.581536  -0.287305
   27  H  2 ZZ   -0.000262   0.004112   0.134383   0.581110  -0.286582
   28  H  2 XY   -0.000000   0.000000  -0.037581  -0.069765   0.009107
   29  H  2 XZ   -0.000000  -0.000000   0.019202   0.031228  -0.004405
   30  H  2 YZ    0.000000  -0.000000   0.027858   0.022140  -0.037564

                      6          7          8          9         10

                    0.0000     0.0000     0.0000     0.0000     0.0000

    1  H  1  S   -0.961479   0.600972   0.203566  -0.287116   0.000000
    2  H  1  S   -0.217798  -4.093609  -0.003264 -33.132207   0.000000
    3  H  1  S    1.180944   0.248980  -0.998146   2.998429   0.000000
    4  H  1  X    0.579497   0.868181   1.605841   0.565366   0.000000
    5  H  1  Y    0.117585   0.084218   0.003677  -0.018460   0.018325
    6  H  1  Z   -0.044911   0.236954   0.039431  -0.013952  -0.154156
    7  H  1  X    0.166360  -0.920715   0.192242 -10.569932   0.000000
    8  H  1  Y    0.126681  -0.182469   0.003961   0.052517  -0.047816
    9  H  1  Z   -0.048385   0.088073   0.042482   0.002386   0.402234
   10  H  1 XX    0.520629   0.132328   1.059062  -0.488330   0.000000
   11  H  1 YY   -0.262113  -0.094136  -0.526125   0.274662   0.000000
   12  H  1 ZZ   -0.258516  -0.038192  -0.532937   0.213668   0.000000
   13  H  1 XY    0.058501   0.199116   0.001829  -0.045622   0.066709
   14  H  1 XZ   -0.022344  -0.292605   0.019618   0.016790  -0.561164
   15  H  1 YZ   -0.186824  -0.096474   0.353766   0.004969   0.000000
   16  H  2  S   -1.102572  -0.895692  -2.116629   0.502324   0.000000
   17  H  2  S    1.577632   3.895638   0.722608  33.049646   0.000000
   18  H  2  S   -1.390509  -0.083254   0.979339  -2.991806   0.000000
   19  H  2  X   -0.631090   1.081714   0.531803   0.615705   0.000000
   20  H  2  Y    0.117585   0.023188   0.003677   0.001931   0.018325
   21  H  2  Z   -0.044911  -0.209034   0.039431   0.017160  -0.154156
   22  H  2  X    0.008574  -1.967059  -1.219899 -10.362578   0.000000
   23  H  2  Y    0.126681  -0.210736   0.003961   0.061962  -0.047816
   24  H  2  Z   -0.048385  -0.118492   0.042482   0.016796   0.402234
   25  H  2 XX    0.735211   0.221969   0.426717   0.286571   0.000000
   26  H  2 YY   -0.369404  -0.138957  -0.209953  -0.112789   0.000000
   27  H  2 ZZ   -0.365807  -0.083013  -0.216764  -0.173782   0.000000
   28  H  2 XY   -0.058501  -0.288156  -0.001829   0.075371  -0.066709
   29  H  2 XZ    0.022344  -0.358069  -0.019618   0.028600   0.561164
   30  H  2 YZ   -0.186824  -0.096474   0.353766   0.004969   0.000000

                     11         12         13         14         15

                    0.0000     0.0000     0.0000     0.0000     0.0000

    1  H  1  S   -0.736194   0.502969   0.000000   0.000000   0.000000
    2  H  1  S    0.402736  -1.254129   0.000000   0.000000   0.000000
    3  H  1  S    0.461802   0.586283   0.000000   0.000000   0.000000
    4  H  1  X   -0.788743   0.489059   0.000000   0.000000   0.000000
    5  H  1  Y   -0.070884   0.056912   0.000000   0.000000  -0.795810
    6  H  1  Z    0.126429   0.015592   0.000000   0.000000   0.150995
    7  H  1  X    0.451914   0.458278   0.000000   0.000000   0.000000
    8  H  1  Y    0.004981   0.080683   0.000000   0.000000   0.479120
    9  H  1  Z    0.053640   0.072921   0.000000   0.000000  -0.090907
   10  H  1 XX    0.413002   0.634792   0.000000   0.000000   0.000000
   11  H  1 YY   -0.072996  -0.532851   0.001864  -0.955767   0.000000
   12  H  1 ZZ   -0.340006  -0.101941  -0.001864   0.955767   0.000000
   13  H  1 XY    0.191154  -0.007634   0.000000   0.000000   0.562040
   14  H  1 XZ   -0.204006   0.174925   0.000000   0.000000  -0.106640
   15  H  1 YZ    0.051846  -0.123455  -1.103625  -0.002152   0.000000
   16  H  2  S    0.634182  -0.844968   0.000000   0.000000   0.000000
   17  H  2  S   -0.412620   0.866309   0.000000   0.000000   0.000000
   18  H  2  S   -0.437511  -0.305963   0.000000   0.000000   0.000000
   19  H  2  X   -0.770151   0.865655   0.000000   0.000000   0.000000
   20  H  2  Y    0.167633   0.041237   0.000000   0.000000  -0.795810
   21  H  2  Z   -0.145577   0.188984   0.000000   0.000000   0.150995
   22  H  2  X    0.235374  -1.129827   0.000000   0.000000   0.000000
   23  H  2  Y    0.115452   0.073423   0.000000   0.000000   0.479120
   24  H  2  Z   -0.072343   0.153229   0.000000   0.000000  -0.090907
   25  H  2 XX   -0.303511  -0.172830   0.000000   0.000000   0.000000
   26  H  2 YY    0.285260  -0.129040  -0.001864   0.955767   0.000000
   27  H  2 ZZ    0.018251   0.301870   0.001864  -0.955767   0.000000
   28  H  2 XY    0.156830  -0.015235   0.000000   0.000000  -0.562040
   29  H  2 XZ   -0.192837   0.078045   0.000000   0.000000   0.106640
   30  H  2 YZ    0.051846  -0.123455   1.103625   0.002152   0.000000

                     16         17         18         19         20

                    0.0000     0.0000     0.0000     0.0000     0.0000

    1  H  1  S    0.000000   0.415282   0.000000   0.000000  -0.399180
    2  H  1  S    0.000000   1.745390   0.000000   0.000000  -1.946293
    3  H  1  S    0.000000  -0.392879   0.000000   0.000000   0.056348
    4  H  1  X    0.000000   0.540603   0.000000   0.000000   0.262740
    5  H  1  Y   -0.150995  -0.320732  -1.023402   0.782679  -0.036395
    6  H  1  Z   -0.795810   0.016754   0.782679   1.023402  -0.296907
    7  H  1  X    0.000000   0.679325   0.000000   0.000000   0.048095
    8  H  1  Y    0.090907   0.114900   1.212656  -0.927416  -0.159874
    9  H  1  Z    0.479120   0.023424  -0.927416  -1.212656  -0.274516
   10  H  1 XX    0.000000   0.032710   0.000000   0.000000   0.496533
   11  H  1 YY    0.000000  -0.102327   0.000000   0.000000  -0.227410
   12  H  1 ZZ    0.000000   0.069617   0.000000   0.000000  -0.269123
   13  H  1 XY    0.106640  -0.060976  -0.316492   0.242047   0.166788
   14  H  1 XZ    0.562040  -0.137182   0.242047   0.316492   0.064437
   15  H  1 YZ    0.000000  -0.049476   0.000000   0.000000  -0.000808
   16  H  2  S    0.000000  -0.634780   0.000000   0.000000  -0.417529
   17  H  2  S    0.000000  -1.800639   0.000000   0.000000   1.922078
   18  H  2  S    0.000000   0.464759   0.000000   0.000000   0.109517
   19  H  2  X    0.000000   0.620549   0.000000   0.000000   0.401370
   20  H  2  Y   -0.150995   0.075313   1.023402  -0.782679   0.029760
   21  H  2  Z   -0.795810  -0.096902  -0.782679  -1.023402  -0.094637
   22  H  2  X    0.000000   0.121745   0.000000   0.000000  -1.587432
   23  H  2  Y    0.090907   0.298333  -1.212656   0.927416  -0.129234
   24  H  2  Z    0.479120  -0.029217   0.927416   1.212656  -0.180832
   25  H  2 XX    0.000000   0.204525   0.000000   0.000000   0.336249
   26  H  2 YY    0.000000  -0.188234   0.000000   0.000000  -0.147268
   27  H  2 ZZ    0.000000  -0.016291   0.000000   0.000000  -0.188981
   28  H  2 XY   -0.106640   0.638786  -0.316492   0.242047  -0.070272
   29  H  2 XZ   -0.562040  -0.028636   0.242047   0.316492   0.230665
   30  H  2 YZ    0.000000  -0.049476   0.000000   0.000000  -0.000808

                     21         22         23         24         25

                    0.0000     0.0000     0.0000     0.0000    -0.0000

    1  H  1  S    0.469834   0.000000   0.000000   0.541899   1.156324
    2  H  1  S    1.910043   0.000000   0.000000   0.495548  -1.126761
    3  H  1  S   -0.121619   0.000000   0.000000  -0.062643   0.449127
    4  H  1  X    0.531451   0.000000   0.000000   0.350645   0.295768
    5  H  1  Y    0.052722   1.733358   1.172381  -0.100056   0.001894
    6  H  1  Z    0.004666   1.172381  -1.733358  -0.003106  -0.000853
    7  H  1  X    1.079566   0.000000   0.000000   0.081899  -0.741656
    8  H  1  Y    0.217223   1.933087   1.307470  -0.254745   0.002041
    9  H  1  Z    0.035781   1.307470  -1.933087   0.029685  -0.000919
   10  H  1 XX    0.333012   0.000000   0.000000  -0.116011   0.343658
   11  H  1 YY    0.180269   0.000000   0.000000   0.262611  -0.171562
   12  H  1 ZZ   -0.513282   0.000000   0.000000  -0.146599  -0.172095
   13  H  1 XY   -0.389357   1.801771   1.218653   0.518490   0.000942
   14  H  1 XZ   -0.009864   1.218653  -1.801771   0.226871  -0.000424
   15  H  1 YZ   -0.090149   0.000000   0.000000  -0.058539   0.027681
   16  H  2  S   -0.794842   0.000000   0.000000  -0.361426   0.155505
   17  H  2  S   -2.107655   0.000000   0.000000  -0.593720   0.135947
   18  H  2  S    0.292600   0.000000   0.000000   0.083877  -0.117705
   19  H  2  X    0.745629   0.000000   0.000000   0.408870   0.482467
   20  H  2  Y   -0.172138  -1.733358  -1.172381   0.257196   0.001894
   21  H  2  Z    0.015981  -1.172381   1.733358   0.203804  -0.000853
   22  H  2  X   -0.021266   0.000000   0.000000   0.194311   0.424306
   23  H  2  Y    0.113076  -1.933087  -1.307470  -0.089279   0.002041
   24  H  2  Z    0.041022  -1.307470   1.933087   0.125517  -0.000919
   25  H  2 XX    0.054396   0.000000   0.000000  -0.038145   0.100931
   26  H  2 YY    0.319577   0.000000   0.000000   0.223678  -0.050199
   27  H  2 ZZ   -0.373974   0.000000   0.000000  -0.185532  -0.050732
   28  H  2 XY    0.061297   1.801771   1.218653   0.002723  -0.000942
   29  H  2 XZ    0.026373   1.218653  -1.801771   0.075000   0.000424
   30  H  2 YZ   -0.090149   0.000000   0.000000  -0.058539   0.027681

                     26         27         28

                   -0.0000    -0.0000    -0.0000

    1  H  1  S   -0.524435   2.107997   0.121614
    2  H  1  S    0.761165   0.351061  -0.654669
    3  H  1  S   -2.448041   0.239548   0.661573
    4  H  1  X    0.263707   1.234948  -0.226345
    5  H  1  Y    0.008921  -0.147466   0.009243
    6  H  1  Z    0.012702  -0.011923  -0.017106
    7  H  1  X   -0.311873  -0.510754   0.412315
    8  H  1  Y    0.009611  -0.158873   0.009958
    9  H  1  Z    0.013684  -0.012845  -0.018429
   10  H  1 XX    0.567425   0.347218  -0.352742
   11  H  1 YY   -0.286473  -0.174920   0.175455
   12  H  1 ZZ   -0.280952  -0.172299   0.177287
   13  H  1 XY    0.004438  -0.073368   0.004599
   14  H  1 XZ    0.006319  -0.005932  -0.008511
   15  H  1 YZ   -0.286752  -0.136107  -0.095154
   16  H  2  S   -0.370459  -1.727559   1.177683
   17  H  2  S   -0.271792  -0.063835  -1.333786
   18  H  2  S    2.339300  -0.468829   0.280854
   19  H  2  X   -0.121836   0.818550  -0.655036
   20  H  2  Y    0.008921  -0.147466   0.009243
   21  H  2  Z    0.012702  -0.011923  -0.017106
   22  H  2  X   -0.766488   0.932127  -0.001634
   23  H  2  Y    0.009611  -0.158873   0.009958
   24  H  2  Z    0.013684  -0.012845  -0.018429
   25  H  2 XX    0.268254  -1.015721  -0.047617
   26  H  2 YY   -0.136887   0.506550   0.022893
   27  H  2 ZZ   -0.131366   0.509171   0.024725
   28  H  2 XY   -0.004438   0.073368  -0.004599
   29  H  2 XZ   -0.006319   0.005932   0.008511
   30  H  2 YZ   -0.286752  -0.136107  -0.095154

 THE CIS NATURAL ORBITALS HAVE BEEN PUNCHED.

 ..... DONE WITH CIS ENERGY .....

 CPU     0: STEP CPU TIME=     0.02 TOTAL CPU TIME=        0.1 (    0.0 MIN)
 TOTAL WALL CLOCK TIME=        0.8 SECONDS, CPU UTILIZATION IS   9.64%

     -------------------------------------------------------------
     CIS   PROPERTIES...FOR THE WAVEFUNCTION OF EXCITED STATE    1
                 USING THE EXPECTATION VALUE DENSITY
     -------------------------------------------------------------

          -----------------
          ENERGY COMPONENTS
          -----------------

         WAVEFUNCTION NORMALIZATION =       1.0000000000

                ONE ELECTRON ENERGY =      -1.8708384647
                TWO ELECTRON ENERGY =       0.3716370421
           NUCLEAR REPULSION ENERGY =       1.0000000000
                                      ------------------
                       TOTAL ENERGY =      -0.4992014226

 ELECTRON-ELECTRON POTENTIAL ENERGY =       0.3716370421
  NUCLEUS-ELECTRON POTENTIAL ENERGY =      -2.8343657935
   NUCLEUS-NUCLEUS POTENTIAL ENERGY =       1.0000000000
                                      ------------------
             TOTAL POTENTIAL ENERGY =      -1.4627287514
               TOTAL KINETIC ENERGY =       0.9635273288
                 VIRIAL RATIO (V/T) =       1.5180978346

          ---------------------------------------
          MULLIKEN AND LOWDIN POPULATION ANALYSES
          ---------------------------------------

               ----- POPULATIONS IN EACH AO -----
                             MULLIKEN      LOWDIN
              1  H  1  S      0.16651     0.10908
              2  H  1  S      0.04284     0.16661
              3  H  1  S      0.59370     0.39353
              4  H  1  X      0.00511     0.00857
              5  H  1  Y      0.00000     0.00000
              6  H  1  Z      0.00000     0.00000
              7  H  1  X      0.19146     0.18322
              8  H  1  Y      0.00000     0.00000
              9  H  1  Z      0.00000     0.00000
             10  H  1 XX      0.00010     0.06834
             11  H  1 YY      0.00029     0.03532
             12  H  1 ZZ      0.00000     0.03532
             13  H  1 XY      0.00000     0.00000
             14  H  1 XZ      0.00000     0.00000
             15  H  1 YZ      0.00000     0.00000
             16  H  2  S      0.16651     0.10908
             17  H  2  S      0.04284     0.16661
             18  H  2  S      0.59370     0.39353
             19  H  2  X      0.00511     0.00857
             20  H  2  Y      0.00000     0.00000
             21  H  2  Z      0.00000     0.00000
             22  H  2  X      0.19146     0.18322
             23  H  2  Y      0.00000     0.00000
             24  H  2  Z      0.00000     0.00000
             25  H  2 XX      0.00010     0.06834
             26  H  2 YY      0.00029     0.03532
             27  H  2 ZZ      0.00000     0.03532
             28  H  2 XY      0.00000     0.00000
             29  H  2 XZ      0.00000     0.00000
             30  H  2 YZ      0.00000     0.00000

          ----- MULLIKEN ATOMIC OVERLAP POPULATIONS -----
          (OFF-DIAGONAL ELEMENTS NEED TO BE MULTIPLIED BY 2)

             1           2

    1    6.6353523
    2   -5.6353523   6.6353523

          TOTAL MULLIKEN AND LOWDIN ATOMIC POPULATIONS
       ATOM         MULL.POP.    CHARGE          LOW.POP.     CHARGE
    1 H             1.000000    0.000000         1.000000   -0.000000
    2 H             1.000000   -0.000000         1.000000   -0.000000

          MULLIKEN SPHERICAL HARMONIC POPULATIONS
       ATOM           S       P       D      F      G      H      I    TOTAL
    1 H             0.80    0.20    0.00   0.00   0.00   0.00   0.00    1.00
    2 H             0.80    0.20    0.00   0.00   0.00   0.00   0.00    1.00

          ---------------------
          ELECTROSTATIC MOMENTS
          ---------------------

 POINT   1           X           Y           Z (BOHR)    CHARGE
                 0.500000    0.000000    0.000000        0.00 (A.U.)
         DX          DY          DZ         /D/  (DEBYE)
     0.000000   -0.000000    0.000000    0.000000
 ...... END OF PROPERTY EVALUATION ......
 CPU     0: STEP CPU TIME=     0.00 TOTAL CPU TIME=        0.1 (    0.0 MIN)
 TOTAL WALL CLOCK TIME=        1.0 SECONDS, CPU UTILIZATION IS   8.42%
                580000  WORDS OF DYNAMIC MEMORY USED
 EXECUTION OF GAMESS TERMINATED NORMALLY Wed Apr 12 18:19:51 2017
 DDI: 263640 bytes (0.3 MB / 0 MWords) used by master data server.

 ----------------------------------------
 CPU timing information for all processes
 ========================================
 0: 0.39 + 0.57 = 0.96
 1: 0.16 + 0.29 = 0.45
 2: 0.17 + 0.34 = 0.51
 3: 0.20 + 0.23 = 0.44
 4: 0.18 + 0.37 = 0.56
 5: 0.22 + 0.20 = 0.42
 6: 0.20 + 0.30 = 0.51
 7: 0.17 + 0.23 = 0.40
 8: 0.18 + 0.39 = 0.57
 9: 0.24 + 0.20 = 0.44
 10: 0.21 + 0.29 = 0.50
 11: 0.19 + 0.20 = 0.39
 12: 0.19 + 0.37 = 0.56
 13: 0.12 + 0.26 = 0.39
 14: 0.17 + 0.29 = 0.47
 15: 0.18 + 0.20 = 0.39
 ----------------------------------------
 ddikick.x: exited gracefully.
----- accounting info -----
Files used on the master node kylin.physics.illinois.edu were:
-rw-rw-r--. 1 yyang173 yyang173     331 Apr 12 18:19 /scr/yyang173/sep1.00-cis.F05
-rw-rw-r--. 1 yyang173 yyang173  180016 Apr 12 18:19 /scr/yyang173/sep1.00-cis.F08
-rw-rw-r--. 1 yyang173 yyang173  180016 Apr 12 18:19 /scr/yyang173/sep1.00-cis.F08.001
-rw-rw-r--. 1 yyang173 yyang173  180016 Apr 12 18:19 /scr/yyang173/sep1.00-cis.F08.002
-rw-rw-r--. 1 yyang173 yyang173  180016 Apr 12 18:19 /scr/yyang173/sep1.00-cis.F08.003
-rw-rw-r--. 1 yyang173 yyang173  180016 Apr 12 18:19 /scr/yyang173/sep1.00-cis.F08.004
-rw-rw-r--. 1 yyang173 yyang173  180016 Apr 12 18:19 /scr/yyang173/sep1.00-cis.F08.005
-rw-rw-r--. 1 yyang173 yyang173  180016 Apr 12 18:19 /scr/yyang173/sep1.00-cis.F08.006
-rw-rw-r--. 1 yyang173 yyang173  180016 Apr 12 18:19 /scr/yyang173/sep1.00-cis.F08.007
-rw-rw-r--. 1 yyang173 yyang173  180016 Apr 12 18:19 /scr/yyang173/sep1.00-cis.F08.008
-rw-rw-r--. 1 yyang173 yyang173  180016 Apr 12 18:19 /scr/yyang173/sep1.00-cis.F08.009
-rw-rw-r--. 1 yyang173 yyang173  180016 Apr 12 18:19 /scr/yyang173/sep1.00-cis.F08.010
-rw-rw-r--. 1 yyang173 yyang173  180016 Apr 12 18:19 /scr/yyang173/sep1.00-cis.F08.011
-rw-rw-r--. 1 yyang173 yyang173  180016 Apr 12 18:19 /scr/yyang173/sep1.00-cis.F08.012
-rw-rw-r--. 1 yyang173 yyang173  180016 Apr 12 18:19 /scr/yyang173/sep1.00-cis.F08.013
-rw-rw-r--. 1 yyang173 yyang173  180016 Apr 12 18:19 /scr/yyang173/sep1.00-cis.F08.014
-rw-rw-r--. 1 yyang173 yyang173  180016 Apr 12 18:19 /scr/yyang173/sep1.00-cis.F08.015
-rw-rw-r--. 1 yyang173 yyang173 1636000 Apr 12 18:19 /scr/yyang173/sep1.00-cis.F10
-rw-rw-r--. 1 yyang173 yyang173    1120 Apr 12 18:19 /scr/yyang173/sep1.00-cis.F12
Wed Apr 12 18:19:54 CDT 2017
0.257u 0.110s 0:04.44 8.1%	0+0k 0+16io 0pf+0w
